 vasp.5.4.4.18Apr17-6-g9f103f2a35 (build Nov  8 2022 18:58:45) complex           
 executed on             LinuxGNU date 2023.06.12  15:22:37
 running on  128 total cores
 distrk:  each k-point on   64 cores,    2 groups
 distr:  one band on NCORES_PER_BAND=   4 cores,   16 groups


--------------------------------------------------------------------------------------------------------


 INCAR:
 POTCAR:    PAW_PBE Fe 06Sep2000                  
 POTCAR:    PAW_PBE S 06Sep2000                   
 POTCAR:    PAW_PBE Fe 06Sep2000                  

 ----------------------------------------------------------------------------- 
|                                                                             |
|           W    W    AA    RRRRR   N    N  II  N    N   GGGG   !!!           |
|           W    W   A  A   R    R  NN   N  II  NN   N  G    G  !!!           |
|           W    W  A    A  R    R  N N  N  II  N N  N  G       !!!           |
|           W WW W  AAAAAA  RRRRR   N  N N  II  N  N N  G  GGG   !            |
|           WW  WW  A    A  R   R   N   NN  II  N   NN  G    G                |
|           W    W  A    A  R    R  N    N  II  N    N   GGGG   !!!           |
|                                                                             |
|      For optimal performance we recommend to set                            |
|        NCORE= 4 - approx SQRT( number of cores)                             |
|      NCORE specifies how many cores store one orbital (NPAR=cpu/NCORE).     |
|      This setting can  greatly improve the performance of VASP for DFT.     |
|      The default,   NCORE=1            might be grossly inefficient         |
|      on modern multi-core architectures or massively parallel machines.     |
|      Do your own testing !!!!                                               |
|      Unfortunately you need to use the default for GW and RPA calculations. |
|      (for HF NCORE is supported but not extensively tested yet)             |
|                                                                             |
 ----------------------------------------------------------------------------- 


 ----------------------------------------------------------------------------- 
|                                                                             |
|           W    W    AA    RRRRR   N    N  II  N    N   GGGG   !!!           |
|           W    W   A  A   R    R  NN   N  II  NN   N  G    G  !!!           |
|           W    W  A    A  R    R  N N  N  II  N N  N  G       !!!           |
|           W WW W  AAAAAA  RRRRR   N  N N  II  N  N N  G  GGG   !            |
|           WW  WW  A    A  R   R   N   NN  II  N   NN  G    G                |
|           W    W  A    A  R    R  N    N  II  N    N   GGGG   !!!           |
|                                                                             |
|      You have enabled k-point parallelism (KPAR>1).                         |
|      This developmental code was originally  written by Paul Kent at ORNL,  |
|      and carefully double checked in Vienna.                                |
|      GW as well as linear response parallelism added by Martijn Marsman     |
|      and Georg Kresse.                                                      |
|      Carefully verify results versus KPAR=1.                                |
|      Report problems to Paul Kent and Vienna.                               |
|                                                                             |
 ----------------------------------------------------------------------------- 

 POTCAR:    PAW_PBE Fe 06Sep2000                  
   VRHFIN =Fe:  d7 s1                                                           
   LEXCH  = PE                                                                  
   EATOM  =   594.3153 eV,   43.6809 Ry                                         
                                                                                
   TITEL  = PAW_PBE Fe 06Sep2000                                                
   LULTRA =        F    use ultrasoft PP ?                                      
   IUNSCR =        1    unscreen: 0-lin 1-nonlin 2-no                           
   RPACOR =    2.000    partial core radius                                     
   POMASS =   55.847; ZVAL   =    8.000    mass and valenz                      
   RCORE  =    2.300    outmost cutoff radius                                   
   RWIGS  =    2.460; RWIGS  =    1.302    wigner-seitz radius (au A)           
   ENMAX  =  267.882; ENMIN  =  200.911 eV                                      
   RCLOC  =    1.701    cutoff for local pot                                    
   LCOR   =        T    correct aug charges                                     
   LPAW   =        T    paw PP                                                  
   EAUG   =  511.368                                                            
   DEXC   =    0.000                                                            
   RMAX   =    2.356    core radius for proj-oper                               
   RAUG   =    1.300    factor for augmentation sphere                          
   RDEP   =    2.442    radius for radial grids                                 
   RDEPT  =    1.890    core radius for aug-charge                              
                                                                                
   Atomic configuration                                                         
    9 entries                                                                   
     n  l   j            E        occ.                                          
     1  0  0.50     -6993.8440   2.0000                                         
     2  0  0.50      -814.6047   2.0000                                         
     2  1  1.50      -693.3689   6.0000                                         
     3  0  0.50       -89.4732   2.0000                                         
     3  1  1.50       -55.6373   6.0000                                         
     3  2  2.50        -3.8151   7.0000                                         
     4  0  0.50        -4.2551   1.0000                                         
     4  1  1.50        -3.4015   0.0000                                         
     4  3  2.50        -1.3606   0.0000                                         
   Description                                                                  
     l       E           TYP  RCUT    TYP  RCUT                                 
     2     -3.8151135     23  2.300                                             
     2     -5.1756961     23  2.300                                             
     0     -4.2550963     23  2.300                                             
     0      7.2035603     23  2.300                                             
     1     -2.7211652     23  2.300                                             
     1     18.4316424     23  2.300                                             
  local pseudopotential read in
  partial core-charges read in
  partial kinetic energy density read in
  atomic valenz-charges read in
  non local Contribution for L=           2  read in
    real space projection operators read in
  non local Contribution for L=           2  read in
    real space projection operators read in
  non local Contribution for L=           0  read in
    real space projection operators read in
  non local Contribution for L=           0  read in
    real space projection operators read in
  non local Contribution for L=           1  read in
    real space projection operators read in
  non local Contribution for L=           1  read in
    real space projection operators read in
    PAW grid and wavefunctions read in

   number of l-projection  operators is LMAX  =           6
   number of lm-projection operators is LMMAX =          18

 POTCAR:    PAW_PBE S 06Sep2000                   
   VRHFIN =S : s2p4                                                             
   LEXCH  = PE                                                                  
   EATOM  =   276.8230 eV,   20.3459 Ry                                         
                                                                                
   TITEL  = PAW_PBE S 06Sep2000                                                 
   LULTRA =        F    use ultrasoft PP ?                                      
   IUNSCR =        1    unscreen: 0-lin 1-nonlin 2-no                           
   RPACOR =    1.500    partial core radius                                     
   POMASS =   32.066; ZVAL   =    6.000    mass and valenz                      
   RCORE  =    1.900    outmost cutoff radius                                   
   RWIGS  =    2.200; RWIGS  =    1.164    wigner-seitz radius (au A)           
   ENMAX  =  258.689; ENMIN  =  194.016 eV                                      
   ICORE  =        2    local potential                                         
   LCOR   =        T    correct aug charges                                     
   LPAW   =        T    paw PP                                                  
   EAUG   =  335.092                                                            
   DEXC   =    0.000                                                            
   RMAX   =    1.942    core radius for proj-oper                               
   RAUG   =    1.300    factor for augmentation sphere                          
   RDEP   =    1.954    radius for radial grids                                 
   RDEPT  =    1.744    core radius for aug-charge                              
                                                                                
   Atomic configuration                                                         
    6 entries                                                                   
     n  l   j            E        occ.                                          
     1  0  0.50     -2405.8406   2.0000                                         
     2  0  0.50      -211.7007   2.0000                                         
     2  1  1.50      -156.4958   6.0000                                         
     3  0  0.50       -17.2562   2.0000                                         
     3  1  0.50        -7.0085   4.0000                                         
     3  2  1.50        -6.8029   0.0000                                         
   Description                                                                  
     l       E           TYP  RCUT    TYP  RCUT                                 
     0    -17.2561641     23  1.900                                             
     0    -15.8743224     23  1.900                                             
     1     -7.0085400     23  1.900                                             
     1     -2.7779785     23  1.900                                             
     2     -6.8029130     23  1.900                                             
  local pseudopotential read in
  partial core-charges read in
  partial kinetic energy density read in
  atomic valenz-charges read in
  non local Contribution for L=           0  read in
    real space projection operators read in
  non local Contribution for L=           0  read in
    real space projection operators read in
  non local Contribution for L=           1  read in
    real space projection operators read in
  non local Contribution for L=           1  read in
    real space projection operators read in
    PAW grid and wavefunctions read in

   number of l-projection  operators is LMAX  =           4
   number of lm-projection operators is LMMAX =           8

 POTCAR:    PAW_PBE Fe 06Sep2000                  
   VRHFIN =Fe:  d7 s1                                                           
   LEXCH  = PE                                                                  
   EATOM  =   594.3153 eV,   43.6809 Ry                                         
                                                                                
   TITEL  = PAW_PBE Fe 06Sep2000                                                
   LULTRA =        F    use ultrasoft PP ?                                      
   IUNSCR =        1    unscreen: 0-lin 1-nonlin 2-no                           
   RPACOR =    2.000    partial core radius                                     
   POMASS =   55.847; ZVAL   =    8.000    mass and valenz                      
   RCORE  =    2.300    outmost cutoff radius                                   
   RWIGS  =    2.460; RWIGS  =    1.302    wigner-seitz radius (au A)           
   ENMAX  =  267.882; ENMIN  =  200.911 eV                                      
   RCLOC  =    1.701    cutoff for local pot                                    
   LCOR   =        T    correct aug charges                                     
   LPAW   =        T    paw PP                                                  
   EAUG   =  511.368                                                            
   DEXC   =    0.000                                                            
   RMAX   =    2.356    core radius for proj-oper                               
   RAUG   =    1.300    factor for augmentation sphere                          
   RDEP   =    2.442    radius for radial grids                                 
   RDEPT  =    1.890    core radius for aug-charge                              
                                                                                
   Atomic configuration                                                         
    9 entries                                                                   
     n  l   j            E        occ.                                          
     1  0  0.50     -6993.8440   2.0000                                         
     2  0  0.50      -814.6047   2.0000                                         
     2  1  1.50      -693.3689   6.0000                                         
     3  0  0.50       -89.4732   2.0000                                         
     3  1  1.50       -55.6373   6.0000                                         
     3  2  2.50        -3.8151   7.0000                                         
     4  0  0.50        -4.2551   1.0000                                         
     4  1  1.50        -3.4015   0.0000                                         
     4  3  2.50        -1.3606   0.0000                                         
   Description                                                                  
     l       E           TYP  RCUT    TYP  RCUT                                 
     2     -3.8151135     23  2.300                                             
     2     -5.1756961     23  2.300                                             
     0     -4.2550963     23  2.300                                             
     0      7.2035603     23  2.300                                             
     1     -2.7211652     23  2.300                                             
     1     18.4316424     23  2.300                                             
  local pseudopotential read in
  partial core-charges read in
  partial kinetic energy density read in
  atomic valenz-charges read in
  non local Contribution for L=           2  read in
    real space projection operators read in
  non local Contribution for L=           2  read in
    real space projection operators read in
  non local Contribution for L=           0  read in
    real space projection operators read in
  non local Contribution for L=           0  read in
    real space projection operators read in
  non local Contribution for L=           1  read in
    real space projection operators read in
  non local Contribution for L=           1  read in
    real space projection operators read in
    PAW grid and wavefunctions read in

   number of l-projection  operators is LMAX  =           6
   number of lm-projection operators is LMMAX =          18

 Optimization of the real space projectors (new method)

 maximal supplied QI-value         = 16.25
 optimisation between [QCUT,QGAM] = [ 10.24, 20.48] = [ 29.35,117.42] Ry 
 Optimized for a Real-space Cutoff    1.55 Angstroem

   l    n(q)    QCUT    max X(q) W(low)/X(q) W(high)/X(q)  e(spline) 
   2      9    10.239    80.901    0.14E-03    0.38E-03    0.21E-06
   2      9    10.239    75.754    0.14E-03    0.38E-03    0.22E-06
   0     10    10.239    58.752    0.62E-04    0.49E-05    0.83E-07
   0     10    10.239    30.679    0.52E-04    0.50E-05    0.76E-07
   1      9    10.239    17.977    0.85E-04    0.98E-04    0.12E-06
   1      9    10.239    13.559    0.69E-04    0.82E-04    0.10E-06
 Optimization of the real space projectors (new method)

 maximal supplied QI-value         = 19.84
 optimisation between [QCUT,QGAM] = [ 10.12, 20.44] = [ 28.68,116.96] Ry 
 Optimized for a Real-space Cutoff    1.42 Angstroem

   l    n(q)    QCUT    max X(q) W(low)/X(q) W(high)/X(q)  e(spline) 
   0      9    10.119   187.594    0.52E-04    0.93E-04    0.64E-07
   0      9    10.119   164.243    0.51E-04    0.92E-04    0.63E-07
   1      8    10.119    67.533    0.16E-03    0.17E-03    0.23E-06
   1      8    10.119    50.729    0.16E-03    0.16E-03    0.23E-06
 Optimization of the real space projectors (new method)

 maximal supplied QI-value         = 16.25
 optimisation between [QCUT,QGAM] = [ 10.24, 20.48] = [ 29.35,117.42] Ry 
 Optimized for a Real-space Cutoff    1.55 Angstroem

   l    n(q)    QCUT    max X(q) W(low)/X(q) W(high)/X(q)  e(spline) 
   2      9    10.239    80.901    0.14E-03    0.38E-03    0.21E-06
   2      9    10.239    75.754    0.14E-03    0.38E-03    0.22E-06
   0     10    10.239    58.752    0.62E-04    0.49E-05    0.83E-07
   0     10    10.239    30.679    0.52E-04    0.50E-05    0.76E-07
   1      9    10.239    17.977    0.85E-04    0.98E-04    0.12E-06
   1      9    10.239    13.559    0.69E-04    0.82E-04    0.10E-06
  PAW_PBE Fe 06Sep2000                  :
 energy of atom  1       EATOM= -594.3153
 kinetic energy error for atom=    0.0088 (will be added to EATOM!!)
  PAW_PBE S 06Sep2000                   :
 energy of atom  2       EATOM= -276.8230
 kinetic energy error for atom=    0.0046 (will be added to EATOM!!)
  PAW_PBE Fe 06Sep2000                  :
 energy of atom  3       EATOM= -594.3153
 kinetic energy error for atom=    0.0088 (will be added to EATOM!!)


 POSCAR: Fe75 S1                                 
  positions in direct lattice
  No initial velocities read in
 exchange correlation table for  LEXCH =        8
   RHO(1)=    0.500       N(1)  =     2000
   RHO(2)=  100.500       N(2)  =     4000



--------------------------------------------------------------------------------------------------------


 ion  position               nearest neighbor table
   1  1.000  0.427  0.199-   7 2.38   8 2.38   3 2.46   4 2.46   5 2.68   9 2.79   2 2.83   2 2.83

   2  0.500  0.427  0.199-   7 2.38   8 2.38   3 2.46   4 2.46   6 2.68  10 2.80   1 2.83   1 2.83

   3  0.250  0.119  0.212-   9 2.45  10 2.46   1 2.46   2 2.46   6 2.47   5 2.47   7 2.83   4 2.83
                             4 2.83  11 2.87
   4  0.750  0.119  0.212-   9 2.45  10 2.46   1 2.46   2 2.46   6 2.47   5 2.47   8 2.83   3 2.83
                             3 2.83  12 2.87
   5  1.000  0.813  0.227-   7 2.47   8 2.47   4 2.47   3 2.47  11 2.49  12 2.49   1 2.68   6 2.83
                             6 2.83   9 2.85  13 2.91
   6  0.500  0.813  0.227-   8 2.47   7 2.47   3 2.47   4 2.47  12 2.49  11 2.49   2 2.68   5 2.83
                             5 2.83  10 2.85  14 2.92
   7  0.250  0.514  0.246-   2 2.38   1 2.38  13 2.45  14 2.45  10 2.46   9 2.46   5 2.47   6 2.47
                            11 2.79   3 2.83   8 2.83   8 2.83  15 2.84
   8  0.750  0.514  0.246-   2 2.38   1 2.38  13 2.45  14 2.45  10 2.46   9 2.46   5 2.47   6 2.47
                            12 2.79   4 2.83   7 2.83   7 2.83  16 2.84
   9  1.000  0.211  0.261-  11 2.45  12 2.45   3 2.45   4 2.45   7 2.46   8 2.46  16 2.48  15 2.48
                             1 2.79  10 2.83  10 2.83  18 2.85   5 2.85  13 2.85
  10  0.500  0.211  0.261-  12 2.45  11 2.45   3 2.46   4 2.46   8 2.46   7 2.46  16 2.47  15 2.47
                             2 2.80   9 2.83   9 2.83  17 2.84   6 2.85  14 2.85
  11  0.250  0.910  0.277-  10 2.45   9 2.45  14 2.45  13 2.45  17 2.48  18 2.48   6 2.49   5 2.49
                             7 2.79  12 2.83  12 2.83  19 2.84  15 2.86   3 2.87
  12  0.750  0.910  0.277-  10 2.45   9 2.45  14 2.45  13 2.45  17 2.48  18 2.48   6 2.49   5 2.49
                             8 2.79  11 2.83  11 2.83  20 2.84  16 2.86   4 2.87
  13  1.000  0.612  0.294-  20 2.43  19 2.43   7 2.45   8 2.45  11 2.45  12 2.45  16 2.46  15 2.46
                            14 2.83  14 2.83  18 2.84  21 2.85   9 2.85   5 2.91
  14  0.500  0.612  0.294-  20 2.43  19 2.43   8 2.45   7 2.45  16 2.45  15 2.45  12 2.45  11 2.45
                            13 2.83  13 2.83  17 2.83  10 2.85  22 2.86   6 2.92
  15  0.250  0.312  0.310-  17 2.44  18 2.44  14 2.45  13 2.46  21 2.46  10 2.47  22 2.48   9 2.48
                            19 2.82  16 2.83  16 2.84   7 2.84  23 2.85  11 2.86
  16  0.750  0.312  0.310-  17 2.44  18 2.44  14 2.45  13 2.46  21 2.46  10 2.47  22 2.48   9 2.48
                            20 2.82  15 2.83  15 2.84   8 2.84  24 2.85  12 2.86
  17  0.500  0.013  0.326-  15 2.44  16 2.44  19 2.45  20 2.45  12 2.48  11 2.48  23 2.48  24 2.48
                            26 2.80  18 2.83  18 2.83  14 2.83  22 2.84  10 2.84
  18  1.000  0.013  0.326-  15 2.44  16 2.44  19 2.46  20 2.46  11 2.48  12 2.48  23 2.48  24 2.48
                            25 2.76  21 2.83  17 2.83  17 2.83  13 2.84   9 2.85
  19  0.250  0.711  0.342-  25 2.42  14 2.43  26 2.43  13 2.43  17 2.45  18 2.46  21 2.46  22 2.47
                            15 2.82  20 2.83  20 2.84  11 2.84  27 2.88  23 2.88
  20  0.750  0.711  0.342-  25 2.42  14 2.43  26 2.43  13 2.43  17 2.45  18 2.46  21 2.46  22 2.47
                            16 2.82  19 2.83  19 2.84  12 2.84  28 2.88  24 2.88
  21  1.000  0.412  0.359-  24 2.44  23 2.44  28 2.44  27 2.44  20 2.46  19 2.46  15 2.46  16 2.46
                            25 2.80  18 2.83  22 2.83  22 2.83  13 2.85  30 2.95
  22  0.500  0.411  0.359-  24 2.43  23 2.43  28 2.45  27 2.45  20 2.47  19 2.47  16 2.48  15 2.48
                            26 2.78  21 2.83  21 2.83  17 2.84  14 2.86  29 2.96
  23  0.251  0.116  0.375-  22 2.43  25 2.43  21 2.44  26 2.46  17 2.48  18 2.48  30 2.54  29 2.55
                            31 2.75  27 2.79  24 2.82  24 2.84  15 2.85  19 2.88
  24  0.749  0.116  0.375-  22 2.43  25 2.43  21 2.44  26 2.46  17 2.48  18 2.48  30 2.54  29 2.55
                            32 2.75  28 2.79  23 2.82  23 2.84  16 2.85  20 2.88
  25  1.000  0.814  0.388-  19 2.42  20 2.42  31 2.43  32 2.43  23 2.43  24 2.43  27 2.50  28 2.50
                            34 2.68  18 2.76  21 2.80  26 2.83  26 2.83  30 2.92
  26  0.500  0.809  0.389-  32 2.40  31 2.40  20 2.43  19 2.43  24 2.46  23 2.46  28 2.48  27 2.48
                            22 2.78  17 2.80  25 2.83  25 2.83  29 2.94  33 2.95
  27  0.248  0.509  0.407-  34 2.29  33 2.44  21 2.44  22 2.45  30 2.47  26 2.48  29 2.49  25 2.50
                            31 2.74  23 2.79  28 2.81  28 2.86  19 2.88
  28  0.752  0.509  0.407-  34 2.29  33 2.44  21 2.44  22 2.45  30 2.47  26 2.48  29 2.49  25 2.50
                            32 2.74  24 2.79  27 2.81  27 2.86  20 2.88
  29  0.500  0.211  0.427-  32 2.43  31 2.43  28 2.49  27 2.49  24 2.55  23 2.55  33 2.65  38 2.81
                            37 2.81  35 2.82  30 2.83  30 2.83  26 2.94  22 2.96
  30  1.000  0.211  0.426-  31 2.45  32 2.45  28 2.47  27 2.47  24 2.54  23 2.54  36 2.75  34 2.77
                            29 2.83  29 2.83  37 2.86  38 2.86  25 2.92  21 2.95
  31  0.252  0.903  0.436-  34 2.32  35 2.35  36 2.36  26 2.40  25 2.43  29 2.43  30 2.45  33 2.55
                            27 2.74  23 2.75  32 2.81  32 2.85  37 3.12
  32  0.748  0.903  0.436-  34 2.32  35 2.35  36 2.36  26 2.40  25 2.43  29 2.43  30 2.45  33 2.55
                            28 2.74  24 2.75  31 2.81  31 2.85  38 3.12
  33  0.500  0.590  0.456-  39 2.32  28 2.44  27 2.44  35 2.48  32 2.55  31 2.55  29 2.65  38 2.75
                            37 2.75  34 2.85  34 2.85  26 2.95
  34  1.000  0.625  0.449-  27 2.29  28 2.29  31 2.32  32 2.32  40 2.33  36 2.50  25 2.68  30 2.77
                            33 2.85  33 2.85
  35  0.500  0.940  0.484-  31 2.35  32 2.35  42 2.36  41 2.36  33 2.48  38 2.54  37 2.54  39 2.58
                            43 2.79  29 2.82  36 2.83  36 2.83
  36  1.000  0.958  0.483-  32 2.36  31 2.36  41 2.38  42 2.38  37 2.48  38 2.48  34 2.50  40 2.58
                            44 2.73  30 2.75  35 2.83  35 2.83
  37  0.256  0.274  0.488-  36 2.48  35 2.54  40 2.54  39 2.59  43 2.59  44 2.61  33 2.75  38 2.77
                            29 2.81  30 2.86  38 2.90  41 2.99  31 3.12
  38  0.744  0.274  0.488-  36 2.48  35 2.54  40 2.54  39 2.59  43 2.59  44 2.61  33 2.75  37 2.77
                            29 2.81  30 2.86  37 2.90  42 2.99  32 3.12
  39  0.500  0.579  0.515-  33 2.32  46 2.38  45 2.38  42 2.48  41 2.48  35 2.58  37 2.59  38 2.59
                            43 2.70  48 2.82  40 2.84  40 2.84
  40  1.000  0.580  0.508-  34 2.33  42 2.53  41 2.53  45 2.54  46 2.54  37 2.54  38 2.54  36 2.58
                            44 2.80  39 2.84  39 2.84  47 3.03
  41  0.248  0.882  0.531-  35 2.36  36 2.38  47 2.39  48 2.41  44 2.45  43 2.45  39 2.48  40 2.53
                            45 2.76  49 2.76  42 2.81  42 2.85  37 2.99
  42  0.752  0.882  0.531-  35 2.36  36 2.38  47 2.39  48 2.41  44 2.45  43 2.45  39 2.48  40 2.53
                            46 2.76  50 2.76  41 2.81  41 2.85  38 2.99
  43  0.500  0.189  0.542-  41 2.45  42 2.45  46 2.47  45 2.47  49 2.50  50 2.50  37 2.59  38 2.59
                            39 2.70  35 2.79  44 2.83  44 2.83  48 2.90  51 2.90
  44  1.000  0.191  0.542-  46 2.44  45 2.44  42 2.45  41 2.45  50 2.51  49 2.51  38 2.61  37 2.61
                            36 2.73  40 2.80  43 2.83  43 2.83  47 2.91  52 2.91
  45  0.245  0.486  0.560-  39 2.38  52 2.44  44 2.44  47 2.46  51 2.46  43 2.47  48 2.49  40 2.54
                            41 2.76  46 2.78  49 2.80  53 2.88  46 2.89
  46  0.755  0.486  0.560-  39 2.38  52 2.44  44 2.44  47 2.46  51 2.46  43 2.47  48 2.49  40 2.54
                            42 2.76  45 2.78  50 2.80  54 2.88  45 2.89
  47  1.000  0.788  0.578-  42 2.39  41 2.39  54 2.43  53 2.43  50 2.46  49 2.46  45 2.46  46 2.46
                            52 2.80  56 2.81  48 2.83  48 2.83  44 2.91  40 3.03
  48  0.500  0.788  0.578-  41 2.41  42 2.41  53 2.43  54 2.43  50 2.46  49 2.46  45 2.49  46 2.49
                            51 2.79  55 2.81  39 2.82  47 2.83  47 2.83  43 2.90
  49  0.249  0.092  0.592-  52 2.45  51 2.45  47 2.46  56 2.46  48 2.46  55 2.47  43 2.50  44 2.51
                            41 2.76  45 2.80  50 2.83  50 2.84  57 2.84  53 2.86
  50  0.750  0.092  0.592-  52 2.45  51 2.45  47 2.46  56 2.46  48 2.46  55 2.47  43 2.50  44 2.51
                            42 2.76  46 2.80  49 2.83  49 2.84  58 2.84  54 2.86
  51  0.500  0.391  0.609-  49 2.45  50 2.45  57 2.45  58 2.45  53 2.46  54 2.46  46 2.46  45 2.46
                            48 2.79  55 2.82  52 2.83  52 2.83  60 2.86  43 2.90
  52  1.000  0.391  0.609-  45 2.44  46 2.44  49 2.45  50 2.45  58 2.45  57 2.45  54 2.46  53 2.46
                            47 2.80  56 2.82  51 2.83  51 2.83  59 2.86  44 2.91
  53  0.250  0.691  0.625-  48 2.43  47 2.43  59 2.44  60 2.44  56 2.45  55 2.46  52 2.46  51 2.46
                            57 2.81  61 2.82  54 2.83  54 2.83  49 2.86  45 2.88
  54  0.750  0.691  0.625-  48 2.43  47 2.43  59 2.44  60 2.44  56 2.45  55 2.46  52 2.46  51 2.46
                            58 2.81  62 2.82  53 2.83  53 2.83  50 2.86  46 2.88
  55  0.500  0.993  0.641-  61 2.45  62 2.45  57 2.45  58 2.45  53 2.46  54 2.46  49 2.47  50 2.47
                            48 2.81  51 2.82  63 2.83  56 2.83  56 2.83  60 2.84
  56  1.000  0.993  0.641-  57 2.45  58 2.45  61 2.45  62 2.45  54 2.45  53 2.45  49 2.46  50 2.46
                            47 2.81  52 2.82  64 2.83  55 2.83  55 2.83  59 2.84
  57  0.250  0.293  0.657-  64 2.44  63 2.44  52 2.45  51 2.45  56 2.45  55 2.45  60 2.46  59 2.46
                            53 2.81  61 2.83  58 2.83  58 2.83  49 2.84  65 2.87
  58  0.750  0.293  0.657-  64 2.44  63 2.44  52 2.45  51 2.45  56 2.45  55 2.45  60 2.46  59 2.46
                            54 2.81  62 2.83  57 2.83  57 2.83  50 2.84  66 2.87
  59  1.000  0.593  0.674-  53 2.44  54 2.44  61 2.45  62 2.45  57 2.46  58 2.46  65 2.47  66 2.47
                            64 2.81  60 2.83  60 2.83  56 2.84  67 2.84  52 2.86
  60  0.500  0.593  0.674-  54 2.44  53 2.44  62 2.45  61 2.45  58 2.46  57 2.46  65 2.47  66 2.47
                            63 2.80  59 2.83  59 2.83  55 2.84  68 2.84  51 2.86
  61  0.250  0.894  0.689-  55 2.45  59 2.45  56 2.45  60 2.45  64 2.45  63 2.46  67 2.47  68 2.47
                            53 2.82  57 2.83  69 2.83  62 2.83  62 2.83  65 2.85
  62  0.750  0.894  0.689-  55 2.45  59 2.45  56 2.45  60 2.45  64 2.45  63 2.46  67 2.47  68 2.47
                            54 2.82  58 2.83  70 2.83  61 2.83  61 2.83  66 2.85
  63  0.500  0.196  0.705-  58 2.44  57 2.44  69 2.45  70 2.45  62 2.46  61 2.46  66 2.46  65 2.46
                            60 2.80  55 2.83  64 2.83  64 2.83  68 2.85  71 2.93
  64  1.000  0.196  0.705-  57 2.44  58 2.44  70 2.45  69 2.45  61 2.45  62 2.45  66 2.46  65 2.46
                            59 2.81  56 2.83  63 2.83  63 2.83  67 2.85  72 2.93
  65  0.250  0.493  0.722-  67 2.45  68 2.45  64 2.46  63 2.46  59 2.47  60 2.47  71 2.48  72 2.48
                            69 2.78  66 2.83  66 2.83  61 2.85  57 2.87  73 2.87
  66  0.750  0.493  0.722-  67 2.45  68 2.45  64 2.46  63 2.46  59 2.47  60 2.47  71 2.48  72 2.48
                            70 2.78  65 2.83  65 2.83  62 2.85  58 2.87  74 2.87
  67  1.000  0.794  0.738-  65 2.45  66 2.45  73 2.46  74 2.46  70 2.46  69 2.46  61 2.47  62 2.47
                            76 2.80  68 2.83  68 2.83  59 2.84  72 2.85  64 2.85
  68  0.500  0.794  0.738-  66 2.45  65 2.45  74 2.46  73 2.46  69 2.46  70 2.46  62 2.47  61 2.47
                            75 2.80  67 2.83  67 2.83  60 2.84  71 2.85  63 2.85
  69  0.250  0.098  0.753-  75 2.38  76 2.38  64 2.45  63 2.45  67 2.46  68 2.46  71 2.47  72 2.48
                            65 2.78  73 2.83  61 2.83  70 2.83  70 2.83
  70  0.750  0.098  0.753-  75 2.38  76 2.38  64 2.45  63 2.45  67 2.46  68 2.46  71 2.47  72 2.48
                            66 2.78  74 2.83  62 2.83  69 2.83  69 2.83
  71  0.500  0.397  0.772-  69 2.47  70 2.47  74 2.48  73 2.48  66 2.48  65 2.48  75 2.68  72 2.83
                            72 2.83  68 2.85  63 2.93
  72  1.000  0.397  0.772-  69 2.48  70 2.48  73 2.48  74 2.48  65 2.48  66 2.48  76 2.68  71 2.83
                            71 2.83  67 2.85  64 2.93
  73  0.250  0.704  0.787-  68 2.46  67 2.46  76 2.46  75 2.46  72 2.48  71 2.48  69 2.83  74 2.83
                            74 2.83  65 2.87
  74  0.750  0.704  0.787-  68 2.46  67 2.46  76 2.46  75 2.46  72 2.48  71 2.48  70 2.83  73 2.83
                            73 2.83  66 2.87
  75  0.500  0.012  0.800-  69 2.38  70 2.38  74 2.46  73 2.46  71 2.68  68 2.80  76 2.83  76 2.83

  76  1.000  0.012  0.800-  70 2.38  69 2.38  73 2.46  74 2.46  72 2.68  67 2.80  75 2.83  75 2.83


  LATTYP: Found a simple orthorhombic cell.
 ALAT       =     5.6636980000
 B/A-ratio  =     1.1180340124
 C/A-ratio  =     6.9440190844
  
  Lattice vectors:
  
 A1 = (   5.6636980000,   0.0000000000,   0.0000000000)
 A2 = (   0.0000000000,   6.3322070000,   0.0000000000)
 A3 = (   0.0000000000,   0.0000000000,  39.3288270000)


Analysis of symmetry for initial positions (statically):
=====================================================================
 Subroutine PRICEL returns:
 Original cell was already a primitive cell.
 

 Routine SETGRP: Setting up the symmetry group for a 
 simple orthorhombic supercell.


 Subroutine GETGRP returns: Found  1 space group operations
 (whereof  1 operations were pure point group operations)
 out of a pool of  8 trial point group operations.


The static configuration has the point symmetry C_1 .


Analysis of symmetry for dynamics (positions and initial velocities):
=====================================================================
 Subroutine PRICEL returns:
 Original cell was already a primitive cell.
 

 Routine SETGRP: Setting up the symmetry group for a 
 simple orthorhombic supercell.


 Subroutine GETGRP returns: Found  1 space group operations
 (whereof  1 operations were pure point group operations)
 out of a pool of  8 trial point group operations.


The dynamic configuration has the point symmetry C_1 .


Analysis of structural, dynamic, and magnetic symmetry:
=====================================================================
 Subroutine PRICEL returns:
 Original cell was already a primitive cell.
 

 Routine SETGRP: Setting up the symmetry group for a 
 simple orthorhombic supercell.


 Subroutine GETGRP returns: Found  1 space group operations
 (whereof  1 operations were pure point group operations)
 out of a pool of  8 trial point group operations.


The magnetic configuration has the point symmetry C_1 .


 Subroutine INISYM returns: Found  1 space group operations
 (whereof  1 operations are pure point group operations),
 and found     1 'primitive' translations



 KPOINTS: KPOINTS                                 

Automatic generation of k-mesh.
Space group operators:
 irot       det(A)        alpha          n_x          n_y          n_z        tau_x        tau_y        tau_z
    1     1.000000     0.000000     1.000000     0.000000     0.000000     0.000000     0.000000     0.000000
 
 Subroutine IBZKPT returns following result:
 ===========================================
 
 Found     10 irreducible k-points:
 
 Following reciprocal coordinates:
            Coordinates               Weight
  0.000000  0.000000  0.000000      1.000000
  0.250000  0.000000  0.000000      2.000000
  0.500000  0.000000  0.000000      1.000000
  0.000000  0.250000  0.000000      2.000000
  0.250000  0.250000  0.000000      2.000000
  0.500000  0.250000  0.000000      2.000000
 -0.250000  0.250000  0.000000      2.000000
  0.000000  0.500000  0.000000      1.000000
  0.250000  0.500000  0.000000      2.000000
  0.500000  0.500000  0.000000      1.000000
 
 Following cartesian coordinates:
            Coordinates               Weight
  0.000000  0.000000  0.000000      1.000000
  0.044141  0.000000  0.000000      2.000000
  0.088282  0.000000  0.000000      1.000000
  0.000000  0.039481  0.000000      2.000000
  0.044141  0.039481  0.000000      2.000000
  0.088282  0.039481  0.000000      2.000000
 -0.044141  0.039481  0.000000      2.000000
  0.000000  0.078961  0.000000      1.000000
  0.044141  0.078961  0.000000      2.000000
  0.088282  0.078961  0.000000      1.000000
 


--------------------------------------------------------------------------------------------------------




 Dimension of arrays:
   k-points           NKPTS =     10   k-points in BZ     NKDIM =     10   number of bands    NBANDS=    464
   number of dos      NEDOS =    301   number of ions     NIONS =     76
   non local maximal  LDIM  =      6   non local SUM 2l+1 LMDIM =     18
   total plane-waves  NPLWV = 453600
   max r-space proj   IRMAX =   5103   max aug-charges    IRDMAX=  11654
   dimension x,y,z NGX =    40 NGY =   42 NGZ =  270
   dimension x,y,z NGXF=    80 NGYF=   84 NGZF=  540
   support grid    NGXF=    80 NGYF=   84 NGZF=  540
   ions per type =              33   1  42
   NGX,Y,Z   is equivalent  to a cutoff of  11.74, 11.03, 11.41 a.u.
   NGXF,Y,Z  is equivalent  to a cutoff of  23.48, 22.05, 22.83 a.u.

 SYSTEM =  S5-ra001-s210-s-33                      
 POSCAR =  Fe75 S1                                 

 Startparameter for this run:
   NWRITE =      2    write-flag & timer
   PREC   = accura    normal or accurate (medium, high low for compatibility)
   ISTART =      0    job   : 0-new  1-cont  2-samecut
   ICHARG =      2    charge: 1-file 2-atom 10-const
   ISPIN  =      2    spin polarized calculation?
   LNONCOLLINEAR =      F non collinear calculations
   LSORBIT =      F    spin-orbit coupling
   INIWAV =      1    electr: 0-lowe 1-rand  2-diag
   LASPH  =      F    aspherical Exc in radial PAW
   METAGGA=      F    non-selfconsistent MetaGGA calc.

 Electronic Relaxation 1
   ENCUT  =  400.0 eV  29.40 Ry    5.42 a.u.   9.24 10.33 64.14*2*pi/ulx,y,z
   ENINI  =  400.0     initial cutoff
   ENAUG  =  511.4 eV  augmentation charge cutoff
   NELM   =    300;   NELMIN=  2; NELMDL= -5     # of ELM steps 
   EDIFF  = 0.1E-04   stopping-criterion for ELM
   LREAL  =      T    real-space projection
   NLSPLINE    = F    spline interpolate recip. space projectors
   LCOMPAT=      F    compatible to vasp.4.4
   GGA_COMPAT  = T    GGA compatible to vasp.4.4-vasp.4.6
   LMAXPAW     = -100 max onsite density
   LMAXMIX     =    2 max onsite mixed and CHGCAR
   VOSKOWN=      0    Vosko Wilk Nusair interpolation
   ROPT   =   -0.00025  -0.00025  -0.00025
 Ionic relaxation
   EDIFFG = -.1E-01   stopping-criterion for IOM
   NSW    =      0    number of steps for IOM
   NBLOCK =      1;   KBLOCK =      1    inner block; outer block 
   IBRION =     -1    ionic relax: 0-MD 1-quasi-New 2-CG
   NFREE  =      1    steps in history (QN), initial steepest desc. (CG)
   ISIF   =      2    stress and relaxation
   IWAVPR =     10    prediction:  0-non 1-charg 2-wave 3-comb
   ISYM   =      2    0-nonsym 1-usesym 2-fastsym
   LCORR  =      T    Harris-Foulkes like correction to forces

   POTIM  = 0.5000    time-step for ionic-motion
   TEIN   =    0.0    initial temperature
   TEBEG  =    0.0;   TEEND  =   0.0 temperature during run
   SMASS  =  -3.00    Nose mass-parameter (am)
   estimated Nose-frequenzy (Omega)   =  0.10E-29 period in steps =****** mass=  -0.733E-27a.u.
   SCALEE = 1.0000    scale energy and forces
   NPACO  =    256;   APACO  = 16.0  distance and # of slots for P.C.
   PSTRESS=    0.0 pullay stress

  Mass of Ions in am
   POMASS =  55.85 32.07 55.85
  Ionic Valenz
   ZVAL   =   8.00  6.00  8.00
  Atomic Wigner-Seitz radii
   RWIGS  =  -1.00 -1.00 -1.00
  virtual crystal weights 
   VCA    =   1.00  1.00  1.00
   NELECT =     606.0000    total number of electrons
   NUPDOWN=      -1.0000    fix difference up-down

 DOS related values:
   EMIN   =  10.00;   EMAX   =-10.00  energy-range for DOS
   EFERMI =   0.00
   ISMEAR =     1;   SIGMA  =   0.20  broadening in eV -4-tet -1-fermi 0-gaus

 Electronic relaxation 2 (details)
   IALGO  =     68    algorithm
   LDIAG  =      T    sub-space diagonalisation (order eigenvalues)
   LSUBROT=      F    optimize rotation matrix (better conditioning)
   TURBO    =      0    0=normal 1=particle mesh
   IRESTART =      0    0=no restart 2=restart with 2 vectors
   NREBOOT  =      0    no. of reboots
   NMIN     =      0    reboot dimension
   EREF     =   0.00    reference energy to select bands
   IMIX   =      4    mixing-type and parameters
     AMIX     =   0.01;   BMIX     =  0.00
     AMIX_MAG =   0.10;   BMIX_MAG =  0.00
     AMIN     =   0.01
     WC   =   100.;   INIMIX=   1;  MIXPRE=   1;  MAXMIX= -45

 Intra band minimization:
   WEIMIN = 0.0000     energy-eigenvalue tresh-hold
   EBREAK =  0.54E-08  absolut break condition
   DEPER  =   0.30     relativ break condition  

   TIME   =   0.40     timestep for ELM

  volume/ion in A,a.u.               =      18.56       125.24
  Fermi-wavevector in a.u.,A,eV,Ry     =   1.235313  2.334403 20.762463  1.525998
  Thomas-Fermi vector in A             =   2.369967

 Write flags
   LWAVE        =      T    write WAVECAR
   LDOWNSAMPLE  =      F    k-point downsampling of WAVECAR
   LCHARG       =      T    write CHGCAR
   LVTOT        =      F    write LOCPOT, total local potential
   LVHAR        =      F    write LOCPOT, Hartree potential only
   LELF         =      F    write electronic localiz. function (ELF)
   LORBIT       =     10    0 simple, 1 ext, 2 COOP (PROOUT), +10 PAW based schemes


 Dipole corrections
   LMONO  =      F    monopole corrections only (constant potential shift)
   LDIPOL =      F    correct potential (dipole corrections)
   IDIPOL =      0    1-x, 2-y, 3-z, 4-all directions 
   EPSILON=  1.0000000 bulk dielectric constant

 Exchange correlation treatment:
   GGA     =    PE    GGA type
   LEXCH   =     8    internal setting for exchange type
   VOSKOWN=      0    Vosko Wilk Nusair interpolation
   LHFCALC =     F    Hartree Fock is set to
   LHFONE  =     F    Hartree Fock one center treatment
   AEXX    =    0.0000 exact exchange contribution

 Linear response parameters
   LEPSILON=     F    determine dielectric tensor
   LRPA    =     F    only Hartree local field effects (RPA)
   LNABLA  =     F    use nabla operator in PAW spheres
   LVEL    =     F    velocity operator in full k-point grid
   LINTERFAST=   F  fast interpolation
   KINTER  =     0    interpolate to denser k-point grid
   CSHIFT  =0.1000    complex shift for real part using Kramers Kronig
   OMEGAMAX=  -1.0    maximum frequency
   DEG_THRESHOLD= 0.2000000E-02 threshold for treating states as degnerate
   RTIME   =   -0.100 relaxation time in fs
  (WPLASMAI=    0.000 imaginary part of plasma frequency in eV, 0.658/RTIME)
   DFIELD  = 0.0000000 0.0000000 0.0000000 field for delta impulse in time

 Orbital magnetization related:
   ORBITALMAG=     F  switch on orbital magnetization
   LCHIMAG   =     F  perturbation theory with respect to B field
   DQ        =  0.001000  dq finite difference perturbation B field
   LLRAUG    =     F  two centre corrections for induced B field



--------------------------------------------------------------------------------------------------------


 Static calculation
 charge density and potential will be updated during run
 spin polarized calculation
 RMM-DIIS sequential band-by-band and
  variant of blocked Davidson during initial phase
 perform sub-space diagonalisation
    before iterative eigenvector-optimisation
 modified Broyden-mixing scheme, WC =      100.0
 initial mixing is a Kerker type mixing with AMIX =  0.0100 and BMIX =      0.0001
 Hartree-type preconditioning will be used
 using additional bands          161
 real space projection scheme for non local part
 use partial core corrections
 calculate Harris-corrections to forces   (improved forces if not selfconsistent)
 use gradient corrections 
 use of overlap-Matrix (Vanderbilt PP)
 Methfessel and Paxton  Order N= 1 SIGMA  =   0.20


--------------------------------------------------------------------------------------------------------


  energy-cutoff  :      400.00
  volume of cell :     1410.48
      direct lattice vectors                 reciprocal lattice vectors
     5.663698000  0.000000000  0.000000000     0.176563087  0.000000000  0.000000000
     0.000000000  6.332207000  0.000000000     0.000000000  0.157922822  0.000000000
     0.000000000  0.000000000 39.328827000     0.000000000  0.000000000  0.025426642

  length of vectors
     5.663698000  6.332207000 39.328827000     0.176563087  0.157922822  0.025426642



 k-points in units of 2pi/SCALE and weight: KPOINTS                                 
   0.00000000  0.00000000  0.00000000       0.062
   0.04414077  0.00000000  0.00000000       0.125
   0.08828154  0.00000000  0.00000000       0.062
   0.00000000  0.03948071  0.00000000       0.125
   0.04414077  0.03948071  0.00000000       0.125
   0.08828154  0.03948071  0.00000000       0.125
  -0.04414077  0.03948071  0.00000000       0.125
   0.00000000  0.07896141  0.00000000       0.062
   0.04414077  0.07896141  0.00000000       0.125
   0.08828154  0.07896141  0.00000000       0.062

 k-points in reciprocal lattice and weights: KPOINTS                                 
   0.00000000  0.00000000  0.00000000       0.062
   0.25000000  0.00000000  0.00000000       0.125
   0.50000000  0.00000000  0.00000000       0.062
   0.00000000  0.25000000  0.00000000       0.125
   0.25000000  0.25000000  0.00000000       0.125
   0.50000000  0.25000000  0.00000000       0.125
  -0.25000000  0.25000000  0.00000000       0.125
   0.00000000  0.50000000  0.00000000       0.062
   0.25000000  0.50000000  0.00000000       0.125
   0.50000000  0.50000000  0.00000000       0.062

 position of ions in fractional coordinates (direct lattice) 
   0.99999329  0.42680222  0.19915366
   0.49999135  0.42698067  0.19920579
   0.24988621  0.11920804  0.21226135
   0.75010002  0.11920804  0.21226135
   0.99999152  0.81267242  0.22731748
   0.49999311  0.81287456  0.22729791
   0.25007160  0.51387455  0.24580164
   0.74991110  0.51387297  0.24580189
   0.99999329  0.21059324  0.26109500
   0.49999311  0.21077643  0.26116645
   0.25009455  0.91047245  0.27696936
   0.74988815  0.91047245  0.27696961
   0.99999329  0.61213413  0.29399122
   0.49999311  0.61216571  0.29403776
   0.25031525  0.31164963  0.31013282
   0.74967097  0.31165121  0.31013257
   0.49999311  0.01305232  0.32610838
   0.99999506  0.01343765  0.32614448
   0.25046886  0.71104119  0.34161888
   0.74951913  0.71104119  0.34161863
   0.99999329  0.41191957  0.35879255
   0.49999488  0.41125156  0.35923777
   0.25062247  0.11564214  0.37532292
   0.74936552  0.11564372  0.37532317
   0.99999506  0.81411742  0.38847408
   0.49999665  0.80884753  0.38938512
   0.24786279  0.50878785  0.40719877
   0.75212697  0.50878627  0.40719852
   0.49999488  0.21055534  0.42710300
   0.99999506  0.21069115  0.42648996
   0.25187431  0.90254156  0.43633669
   0.74811369  0.90254156  0.43633694
   0.49999665  0.58960012  0.45565432
   0.99999506  0.62493061  0.44938360
   0.49999135  0.93958078  0.48394985
   0.99999152  0.95802459  0.48344946
   0.25564040  0.27407032  0.48833747
   0.74433700  0.27406716  0.48833722
   0.49998958  0.57854710  0.51452463
   0.99998623  0.57997314  0.50823179
   0.24842426  0.88180156  0.53079590
   0.75155314  0.88180156  0.53079590
   0.49998429  0.18903204  0.54239451
   0.99998799  0.19065706  0.54201566
   0.24526731  0.48638650  0.56020028
   0.75470479  0.48638176  0.56020028
   0.99998799  0.78811384  0.57759490
   0.49998782  0.78771746  0.57774975
   0.24949070  0.09247171  0.59227065
   0.75048493  0.09246855  0.59227040
   0.49998958  0.39095690  0.60860091
   0.99998799  0.39101849  0.60868024
   0.24982441  0.69099131  0.62547556
   0.75015652  0.69099131  0.62547556
   0.49998782  0.99273760  0.64097767
   0.99998976  0.99291606  0.64088537
   0.24988974  0.29312845  0.65696289
   0.75008943  0.29312845  0.65696315
   0.99999152  0.59336500  0.67359344
   0.49999135  0.59313759  0.67357285
   0.24996213  0.89423482  0.68927914
   0.75001704  0.89423482  0.68927939
   0.49999311  0.19554004  0.70499001
   0.99999152  0.19550056  0.70499382
   0.24996213  0.49339985  0.72240471
   0.75002057  0.49339827  0.72240497
   0.99999329  0.79446550  0.73813135
   0.49999311  0.79447024  0.73813745
   0.24996389  0.09801796  0.75333190
   0.75002410  0.09801796  0.75333216
   0.49999311  0.39700376  0.77193301
   0.99999506  0.39707956  0.77195386
   0.25003099  0.70374200  0.78703542
   0.74995171  0.70374200  0.78703542
   0.49999135  0.01175735  0.80005997
   0.99999152  0.01161838  0.80007039

 position of ions in cartesian coordinates  (Angst):
   5.66366000  2.70260000  7.83248000
   2.83180000  2.70373000  7.83453000
   1.41528000  0.75485000  8.34799000
   4.24834000  0.75485000  8.34799000
   5.66365000  5.14601000  8.94013000
   2.83181000  5.14729000  8.93936000
   1.41633000  3.25396000  9.66709000
   4.24727000  3.25395000  9.66710000
   5.66366000  1.33352000 10.26856000
   2.83181000  1.33468000 10.27137000
   1.41646000  5.76530000 10.89288000
   4.24714000  5.76530000 10.89289000
   5.66366000  3.87616000 11.56233000
   2.83181000  3.87636000 11.56416000
   1.41771000  1.97343000 12.19716000
   4.24591000  1.97344000 12.19715000
   2.83181000  0.08265000 12.82546000
   5.66367000  0.08509000 12.82688000
   1.41858000  4.50246000 13.43547000
   4.24505000  4.50246000 13.43546000
   5.66366000  2.60836000 14.11089000
   2.83182000  2.60413000 14.12840000
   1.41945000  0.73227000 14.76101000
   4.24418000  0.73228000 14.76102000
   5.66367000  5.15516000 15.27823000
   2.83183000  5.12179000 15.31406000
   1.40382000  3.22175000 16.01465000
   4.25982000  3.22174000 16.01464000
   2.83182000  1.33328000 16.79746000
   5.66367000  1.33414000 16.77335000
   1.42654000  5.71508000 17.16061000
   4.23709000  5.71508000 17.16062000
   2.83183000  3.73347000 17.92035000
   5.66367000  3.95719000 17.67373000
   2.83180000  5.94962000 19.03318000
   5.66365000  6.06641000 19.01350000
   1.44787000  1.73547000 19.20574000
   4.21570000  1.73545000 19.20573000
   2.83179000  3.66348000 20.23565000
   5.66362000  3.67251000 19.98816000
   1.40700000  5.58375000 20.87558000
   4.25657000  5.58375000 20.87558000
   2.83176000  1.19699000 21.33174000
   5.66363000  1.20728000 21.31684000
   1.38912000  3.07990000 22.03202000
   4.27442000  3.07987000 22.03202000
   5.66363000  4.99050000 22.71613000
   2.83178000  4.98799000 22.72222000
   1.41304000  0.58555000 23.29331000
   4.25052000  0.58553000 23.29330000
   2.83179000  2.47562000 23.93556000
   5.66363000  2.47601000 23.93868000
   1.41493000  4.37550000 24.59922000
   4.24866000  4.37550000 24.59922000
   2.83178000  6.28622000 25.20890000
   5.66364000  6.28735000 25.20527000
   1.41530000  1.85615000 25.83758000
   4.24828000  1.85615000 25.83759000
   5.66365000  3.75731000 26.49164000
   2.83180000  3.75587000 26.49083000
   1.41571000  5.66248000 27.10854000
   4.24787000  5.66248000 27.10855000
   2.83181000  1.23820000 27.72643000
   5.66365000  1.23795000 27.72658000
   1.41571000  3.12431000 28.41133000
   4.24789000  3.12430000 28.41134000
   5.66366000  5.03072000 29.02984000
   2.83181000  5.03075000 29.03008000
   1.41572000  0.62067000 29.62766000
   4.24791000  0.62067000 29.62767000
   2.83181000  2.51391000 30.35922000
   5.66367000  2.51439000 30.36004000
   1.41610000  4.45624000 30.95318000
   4.24750000  4.45624000 30.95318000
   2.83180000  0.07445000 31.46542000
   5.66365000  0.07357000 31.46583000



--------------------------------------------------------------------------------------------------------


 k-point  1 :   0.0000 0.0000 0.0000  plane waves:   25655
 k-point  2 :   0.2500 0.0000 0.0000  plane waves:   25644
 k-point  3 :   0.5000 0.0000 0.0000  plane waves:   25678
 k-point  4 :   0.0000 0.2500 0.0000  plane waves:   25617
 k-point  5 :   0.2500 0.2500 0.0000  plane waves:   25588
 k-point  6 :   0.5000 0.2500 0.0000  plane waves:   25644
 k-point  7 :  -0.2500 0.2500 0.0000  plane waves:   25588
 k-point  8 :   0.0000 0.5000 0.0000  plane waves:   25620
 k-point  9 :   0.2500 0.5000 0.0000  plane waves:   25596
 k-point 10 :   0.5000 0.5000 0.0000  plane waves:   25632

 maximum and minimum number of plane-waves per node :      6476     6363

 maximum number of plane-waves:     25678
 maximum index in each direction: 
   IXMAX=    9   IYMAX=   10   IZMAX=   64
   IXMIN=   -9   IYMIN=  -10   IZMIN=  -64

 redistribution in real space done
 redistribution in real space done

 real space projection operators:
  total allocation   :      51908.39 KBytes
  max/ min on nodes  :      12977.67      12976.48


 total amount of memory used by VASP MPI-rank0   135886. kBytes
=======================================================================

   base      :      30000. kBytes
   nonlr-proj:      22530. kBytes
   fftplans  :       5273. kBytes
   grid      :      14093. kBytes
   one-center:        590. kBytes
   wavefun   :      63400. kBytes

     INWAV:  cpu time    0.0001: real time    0.0001
 Broyden mixing: mesh for mixing (old mesh)
   NGX = 19   NGY = 21   NGZ =129
  (NGX  = 80   NGY  = 84   NGZ  =540)
  gives a total of  51471 points

 initial charge density was supplied:
 charge density of overlapping atoms calculated
 number of electron     606.0000000 magnetization     175.1220000
 keeping initial charge density in first step


--------------------------------------------------------------------------------------------------------


 Maximum index for non-local projection operator         1427
 Maximum index for augmentation-charges          208 (set IRDMAX)


--------------------------------------------------------------------------------------------------------


 First call to EWALD:  gamma=   0.158
 Maximum number of real-space cells 5x 4x 1
 Maximum number of reciprocal cells 2x 2x 8

    FEWALD:  cpu time    0.0073: real time    0.0073


--------------------------------------- Iteration      1(   1)  ---------------------------------------


    POTLOK:  cpu time    0.1361: real time    0.1388
    SETDIJ:  cpu time    0.0144: real time    0.0145
     EDDAV:  cpu time   37.1783: real time   37.2821
       DOS:  cpu time    0.0034: real time    0.0036
    --------------------------------------------
      LOOP:  cpu time   37.3322: real time   37.4390

 eigenvalue-minimisations  : 18592
 total energy-change (2. order) : 0.5097277E+04  (-0.2140808E+05)
 number of electron     606.0000000 magnetization     175.1220000
 augmentation part      606.0000000 magnetization     175.1220000

 Free energy of the ion-electron system (eV)
  ---------------------------------------------------
  alpha Z        PSCENC =      2794.63637443
  Ewald energy   TEWEN  =    379909.78738770
  -Hartree energ DENC   =   -428119.97212603
  -exchange      EXHF   =         0.00000000
  -V(xc)+E(xc)   XCENC  =       347.84291934
  PAW double counting   =     41781.41019511   -42356.84218050
  entropy T*S    EENTRO =        -0.00384072
  eigenvalues    EBANDS =      5890.61058747
  atomic energy  EATOM  =     44849.80786364
  Solvation  Ediel_sol  =         0.00000000
  ---------------------------------------------------
  free energy    TOTEN  =      5097.27718044 eV

  energy without entropy =     5097.28102116  energy(sigma->0) =     5097.27846068


--------------------------------------------------------------------------------------------------------




--------------------------------------- Iteration      1(   2)  ---------------------------------------


     EDDAV:  cpu time   37.6268: real time   37.7499
       DOS:  cpu time    0.0020: real time    0.0020
    --------------------------------------------
      LOOP:  cpu time   37.6288: real time   37.7519

 eigenvalue-minimisations  : 18560
 total energy-change (2. order) :-0.5237861E+04  (-0.4897922E+04)
 number of electron     606.0000000 magnetization     175.1220000
 augmentation part      606.0000000 magnetization     175.1220000

 Free energy of the ion-electron system (eV)
  ---------------------------------------------------
  alpha Z        PSCENC =      2794.63637443
  Ewald energy   TEWEN  =    379909.78738770
  -Hartree energ DENC   =   -428119.97212603
  -exchange      EXHF   =         0.00000000
  -V(xc)+E(xc)   XCENC  =       347.84291934
  PAW double counting   =     41781.41019511   -42356.84218050
  entropy T*S    EENTRO =        -0.01594841
  eigenvalues    EBANDS =       652.76155470
  atomic energy  EATOM  =     44849.80786364
  Solvation  Ediel_sol  =         0.00000000
  ---------------------------------------------------
  free energy    TOTEN  =      -140.58396002 eV

  energy without entropy =     -140.56801160  energy(sigma->0) =     -140.57864388


--------------------------------------------------------------------------------------------------------




--------------------------------------- Iteration      1(   3)  ---------------------------------------


     EDDAV:  cpu time   37.6926: real time   37.8141
       DOS:  cpu time    0.0022: real time    0.0022
    --------------------------------------------
      LOOP:  cpu time   37.6948: real time   37.8163

 eigenvalue-minimisations  : 19104
 total energy-change (2. order) :-0.5141070E+03  (-0.4125524E+03)
 number of electron     606.0000000 magnetization     175.1220000
 augmentation part      606.0000000 magnetization     175.1220000

 Free energy of the ion-electron system (eV)
  ---------------------------------------------------
  alpha Z        PSCENC =      2794.63637443
  Ewald energy   TEWEN  =    379909.78738770
  -Hartree energ DENC   =   -428119.97212603
  -exchange      EXHF   =         0.00000000
  -V(xc)+E(xc)   XCENC  =       347.84291934
  PAW double counting   =     41781.41019511   -42356.84218050
  entropy T*S    EENTRO =         0.04572793
  eigenvalues    EBANDS =       138.59285665
  atomic energy  EATOM  =     44849.80786364
  Solvation  Ediel_sol  =         0.00000000
  ---------------------------------------------------
  free energy    TOTEN  =      -654.69098172 eV

  energy without entropy =     -654.73670966  energy(sigma->0) =     -654.70622437


--------------------------------------------------------------------------------------------------------




--------------------------------------- Iteration      1(   4)  ---------------------------------------


     EDDAV:  cpu time   40.4602: real time   40.5678
       DOS:  cpu time    0.0023: real time    0.0023
    --------------------------------------------
      LOOP:  cpu time   40.4626: real time   40.5701

 eigenvalue-minimisations  : 21168
 total energy-change (2. order) :-0.2923752E+02  (-0.2768198E+02)
 number of electron     606.0000000 magnetization     175.1220000
 augmentation part      606.0000000 magnetization     175.1220000

 Free energy of the ion-electron system (eV)
  ---------------------------------------------------
  alpha Z        PSCENC =      2794.63637443
  Ewald energy   TEWEN  =    379909.78738770
  -Hartree energ DENC   =   -428119.97212603
  -exchange      EXHF   =         0.00000000
  -V(xc)+E(xc)   XCENC  =       347.84291934
  PAW double counting   =     41781.41019511   -42356.84218050
  entropy T*S    EENTRO =         0.04266606
  eigenvalues    EBANDS =       109.35840344
  atomic energy  EATOM  =     44849.80786364
  Solvation  Ediel_sol  =         0.00000000
  ---------------------------------------------------
  free energy    TOTEN  =      -683.92849680 eV

  energy without entropy =     -683.97116286  energy(sigma->0) =     -683.94271882


--------------------------------------------------------------------------------------------------------




--------------------------------------- Iteration      1(   5)  ---------------------------------------


     EDDAV:  cpu time   39.8647: real time   40.1524
       DOS:  cpu time    0.0021: real time    0.0021
    CHARGE:  cpu time    1.5927: real time    1.5970
    MIXING:  cpu time    0.0060: real time    0.0064
    --------------------------------------------
      LOOP:  cpu time   41.4655: real time   41.7579

 eigenvalue-minimisations  : 21136
 total energy-change (2. order) :-0.8097563E+00  (-0.8062540E+00)
 number of electron     606.0000316 magnetization     172.8806012
 augmentation part      272.2407320 magnetization     127.5874718

 Broyden mixing:
  rms(total) = 0.96781E+01    rms(broyden)= 0.96755E+01
  rms(prec ) = 0.99184E+01
  weight for this iteration     100.00

 Free energy of the ion-electron system (eV)
  ---------------------------------------------------
  alpha Z        PSCENC =      2794.63637443
  Ewald energy   TEWEN  =    379909.78738770
  -Hartree energ DENC   =   -428119.97212603
  -exchange      EXHF   =         0.00000000
  -V(xc)+E(xc)   XCENC  =       347.84291934
  PAW double counting   =     41781.41019511   -42356.84218050
  entropy T*S    EENTRO =         0.04236982
  eigenvalues    EBANDS =       108.54894333
  atomic energy  EATOM  =     44849.80786364
  Solvation  Ediel_sol  =         0.00000000
  ---------------------------------------------------
  free energy    TOTEN  =      -684.73825315 eV

  energy without entropy =     -684.78062297  energy(sigma->0) =     -684.75237642


--------------------------------------------------------------------------------------------------------




--------------------------------------- Iteration      1(   6)  ---------------------------------------


    POTLOK:  cpu time    0.1369: real time    0.1506
    SETDIJ:  cpu time    0.0105: real time    0.0105
    EDDIAG:  cpu time    6.8322: real time    6.8485
  RMM-DIIS:  cpu time   24.0676: real time   24.1329
    ORTHCH:  cpu time    0.7974: real time    0.7991
       DOS:  cpu time    0.0067: real time    0.0067
    CHARGE:  cpu time    1.6392: real time    1.6418
    MIXING:  cpu time    0.0024: real time    0.0041
    --------------------------------------------
      LOOP:  cpu time   33.4929: real time   33.5942

 eigenvalue-minimisations  : 19587
 total energy-change (2. order) : 0.1289150E+01  (-0.2281639E+00)
 number of electron     606.0000318 magnetization     171.8169323
 augmentation part      271.7877975 magnetization     129.8796446

 Broyden mixing:
  rms(total) = 0.97077E+01    rms(broyden)= 0.97074E+01
  rms(prec ) = 0.10315E+02
  weight for this iteration     100.00

 eigenvalues of (default mixing * dielectric matrix)
  average eigenvalue GAMMA=   0.5306
  0.5306

 Free energy of the ion-electron system (eV)
  ---------------------------------------------------
  alpha Z        PSCENC =      2794.63637443
  Ewald energy   TEWEN  =    379909.78738770
  -Hartree energ DENC   =   -428294.41894889
  -exchange      EXHF   =         0.00000000
  -V(xc)+E(xc)   XCENC  =       346.13161964
  PAW double counting   =     41868.12989514   -42438.60639677
  entropy T*S    EENTRO =         0.01285500
  eigenvalues    EBANDS =       281.07024697
  atomic energy  EATOM  =     44849.80786364
  Solvation  Ediel_sol  =         0.00000000
  ---------------------------------------------------
  free energy    TOTEN  =      -683.44910314 eV

  energy without entropy =     -683.46195814  energy(sigma->0) =     -683.45338814


--------------------------------------------------------------------------------------------------------




--------------------------------------- Iteration      1(   7)  ---------------------------------------


    POTLOK:  cpu time    0.1200: real time    0.1221
    SETDIJ:  cpu time    0.0109: real time    0.0109
    EDDIAG:  cpu time    6.7967: real time    6.8115
  RMM-DIIS:  cpu time   23.9556: real time   24.0182
    ORTHCH:  cpu time    0.7964: real time    0.7969
       DOS:  cpu time    0.0062: real time    0.0068
    CHARGE:  cpu time    1.6286: real time    1.6309
    MIXING:  cpu time    0.0020: real time    0.0024
    --------------------------------------------
      LOOP:  cpu time   33.3165: real time   33.3997

 eigenvalue-minimisations  : 19545
 total energy-change (2. order) : 0.5709212E+01  (-0.6025291E-01)
 number of electron     606.0000319 magnetization     168.5385033
 augmentation part      273.2184252 magnetization     124.8511253

 Broyden mixing:
  rms(total) = 0.91778E+01    rms(broyden)= 0.91776E+01
  rms(prec ) = 0.94303E+01
  weight for this iteration     100.00

 eigenvalues of (default mixing * dielectric matrix)
  average eigenvalue GAMMA=   1.1203
  1.9778  0.2628

 Free energy of the ion-electron system (eV)
  ---------------------------------------------------
  alpha Z        PSCENC =      2794.63637443
  Ewald energy   TEWEN  =    379909.78738770
  -Hartree energ DENC   =   -428161.44049809
  -exchange      EXHF   =         0.00000000
  -V(xc)+E(xc)   XCENC  =       345.32184190
  PAW double counting   =     41901.01946510   -42469.98834607
  entropy T*S    EENTRO =         0.06365956
  eigenvalues    EBANDS =       153.05236039
  atomic energy  EATOM  =     44849.80786364
  Solvation  Ediel_sol  =         0.00000000
  ---------------------------------------------------
  free energy    TOTEN  =      -677.73989143 eV

  energy without entropy =     -677.80355098  energy(sigma->0) =     -677.76111128


--------------------------------------------------------------------------------------------------------




--------------------------------------- Iteration      1(   8)  ---------------------------------------


    POTLOK:  cpu time    0.1348: real time    0.1469
    SETDIJ:  cpu time    0.0108: real time    0.0108
    EDDIAG:  cpu time    6.7825: real time    6.7956
  RMM-DIIS:  cpu time   23.8370: real time   23.8933
    ORTHCH:  cpu time    0.7942: real time    0.7952
       DOS:  cpu time    0.0088: real time    0.0088
    CHARGE:  cpu time    1.6218: real time    1.6258
    MIXING:  cpu time    0.0019: real time    0.0019
    --------------------------------------------
      LOOP:  cpu time   33.1919: real time   33.2784

 eigenvalue-minimisations  : 19431
 total energy-change (2. order) :-0.2232738E+01  (-0.1779044E+00)
 number of electron     606.0000314 magnetization     166.0123389
 augmentation part      274.4649103 magnetization     126.1313507

 Broyden mixing:
  rms(total) = 0.94581E+01    rms(broyden)= 0.94578E+01
  rms(prec ) = 0.11143E+02
  weight for this iteration     100.00

 eigenvalues of (default mixing * dielectric matrix)
  average eigenvalue GAMMA=   1.0644
  2.6505  0.2714  0.2714

 Free energy of the ion-electron system (eV)
  ---------------------------------------------------
  alpha Z        PSCENC =      2794.63637443
  Ewald energy   TEWEN  =    379909.78738770
  -Hartree energ DENC   =   -428152.64195396
  -exchange      EXHF   =         0.00000000
  -V(xc)+E(xc)   XCENC  =       342.79164252
  PAW double counting   =     42027.68645557   -42590.94260826
  entropy T*S    EENTRO =        -0.02871894
  eigenvalues    EBANDS =       138.93092780
  atomic energy  EATOM  =     44849.80786364
  Solvation  Ediel_sol  =         0.00000000
  ---------------------------------------------------
  free energy    TOTEN  =      -679.97262949 eV

  energy without entropy =     -679.94391055  energy(sigma->0) =     -679.96305651


--------------------------------------------------------------------------------------------------------




--------------------------------------- Iteration      1(   9)  ---------------------------------------


    POTLOK:  cpu time    0.1471: real time    0.1476
    SETDIJ:  cpu time    0.0110: real time    0.0110
    EDDIAG:  cpu time    6.8155: real time    6.8281
  RMM-DIIS:  cpu time   23.8683: real time   23.9284
    ORTHCH:  cpu time    0.8233: real time    0.8245
       DOS:  cpu time    0.0026: real time    0.0026
    CHARGE:  cpu time    1.6230: real time    1.6253
    MIXING:  cpu time    0.0020: real time    0.0020
    --------------------------------------------
      LOOP:  cpu time   33.2929: real time   33.3696

 eigenvalue-minimisations  : 19418
 total energy-change (2. order) : 0.1129226E+02  (-0.1310546E+00)
 number of electron     606.0000322 magnetization     139.1109165
 augmentation part      275.8328432 magnetization      98.0235582

 Broyden mixing:
  rms(total) = 0.84903E+01    rms(broyden)= 0.84901E+01
  rms(prec ) = 0.87958E+01
  weight for this iteration     100.00

 eigenvalues of (default mixing * dielectric matrix)
  average eigenvalue GAMMA=   2.8062
  9.7307  1.0437  0.2924  0.1582

 Free energy of the ion-electron system (eV)
  ---------------------------------------------------
  alpha Z        PSCENC =      2794.63637443
  Ewald energy   TEWEN  =    379909.78738770
  -Hartree energ DENC   =   -428176.66426441
  -exchange      EXHF   =         0.00000000
  -V(xc)+E(xc)   XCENC  =       340.88195700
  PAW double counting   =     42121.59302646   -42681.29338706
  entropy T*S    EENTRO =         0.05255128
  eigenvalues    EBANDS =       172.51811950
  atomic energy  EATOM  =     44849.80786364
  Solvation  Ediel_sol  =         0.00000000
  ---------------------------------------------------
  free energy    TOTEN  =      -668.68037146 eV

  energy without entropy =     -668.73292273  energy(sigma->0) =     -668.69788855


--------------------------------------------------------------------------------------------------------




--------------------------------------- Iteration      1(  10)  ---------------------------------------


    POTLOK:  cpu time    0.1357: real time    0.1477
    SETDIJ:  cpu time    0.0106: real time    0.0106
    EDDIAG:  cpu time    6.8111: real time    6.8241
  RMM-DIIS:  cpu time   23.2045: real time   23.2630
    ORTHCH:  cpu time    0.7893: real time    0.7893
       DOS:  cpu time    0.0074: real time    0.0074
    CHARGE:  cpu time    1.6198: real time    1.6242
    MIXING:  cpu time    0.0021: real time    0.0021
    --------------------------------------------
      LOOP:  cpu time   32.5805: real time   32.6686

 eigenvalue-minimisations  : 18820
 total energy-change (2. order) : 0.3962035E+02  (-0.9688183E+01)
 number of electron     606.0000333 magnetization     129.7882403
 augmentation part      291.5658045 magnetization      98.4529901

 Broyden mixing:
  rms(total) = 0.59070E+01    rms(broyden)= 0.59067E+01
  rms(prec ) = 0.60449E+01
  weight for this iteration     100.00

 eigenvalues of (default mixing * dielectric matrix)
  average eigenvalue GAMMA=   3.2397
 13.7692  0.9909  0.9909  0.2888  0.1588

 Free energy of the ion-electron system (eV)
  ---------------------------------------------------
  alpha Z        PSCENC =      2794.63637443
  Ewald energy   TEWEN  =    379909.78738770
  -Hartree energ DENC   =   -427927.45780971
  -exchange      EXHF   =         0.00000000
  -V(xc)+E(xc)   XCENC  =       326.50179577
  PAW double counting   =     43269.58720904   -43783.48465077
  entropy T*S    EENTRO =         0.02191882
  eigenvalues    EBANDS =       -68.46010889
  atomic energy  EATOM  =     44849.80786364
  Solvation  Ediel_sol  =         0.00000000
  ---------------------------------------------------
  free energy    TOTEN  =      -629.06001996 eV

  energy without entropy =     -629.08193878  energy(sigma->0) =     -629.06732623


--------------------------------------------------------------------------------------------------------




--------------------------------------- Iteration      1(  11)  ---------------------------------------


    POTLOK:  cpu time    0.1475: real time    0.1480
    SETDIJ:  cpu time    0.0108: real time    0.0108
    EDDIAG:  cpu time    6.7221: real time    6.7372
  RMM-DIIS:  cpu time   23.5842: real time   23.6455
    ORTHCH:  cpu time    0.7941: real time    0.7951
       DOS:  cpu time    0.0075: real time    0.0075
    CHARGE:  cpu time    1.5977: real time    1.6017
    MIXING:  cpu time    0.0024: real time    0.0024
    --------------------------------------------
      LOOP:  cpu time   32.8663: real time   32.9482

 eigenvalue-minimisations  : 19184
 total energy-change (2. order) : 0.1425782E+02  (-0.3089744E+01)
 number of electron     606.0000341 magnetization     124.3464998
 augmentation part      299.7648320 magnetization      96.7230168

 Broyden mixing:
  rms(total) = 0.49514E+01    rms(broyden)= 0.49513E+01
  rms(prec ) = 0.50324E+01
  weight for this iteration     100.00

 eigenvalues of (default mixing * dielectric matrix)
  average eigenvalue GAMMA=   3.4439
 16.4446  1.4394  1.4394  0.8925  0.2892  0.1585

 Free energy of the ion-electron system (eV)
  ---------------------------------------------------
  alpha Z        PSCENC =      2794.63637443
  Ewald energy   TEWEN  =    379909.78738770
  -Hartree energ DENC   =   -427807.17441960
  -exchange      EXHF   =         0.00000000
  -V(xc)+E(xc)   XCENC  =       323.52980742
  PAW double counting   =     43846.97369602   -44342.01721027
  entropy T*S    EENTRO =         0.03356943
  eigenvalues    EBANDS =      -190.37926608
  atomic energy  EATOM  =     44849.80786364
  Solvation  Ediel_sol  =         0.00000000
  ---------------------------------------------------
  free energy    TOTEN  =      -614.80219730 eV

  energy without entropy =     -614.83576672  energy(sigma->0) =     -614.81338711


--------------------------------------------------------------------------------------------------------




--------------------------------------- Iteration      1(  12)  ---------------------------------------


    POTLOK:  cpu time    0.1331: real time    0.1477
    SETDIJ:  cpu time    0.0109: real time    0.0109
    EDDIAG:  cpu time    6.7607: real time    6.7756
  RMM-DIIS:  cpu time   23.4686: real time   23.5276
    ORTHCH:  cpu time    0.7901: real time    0.7910
       DOS:  cpu time    0.0068: real time    0.0068
    CHARGE:  cpu time    1.6090: real time    1.6118
    MIXING:  cpu time    0.0022: real time    0.0022
    --------------------------------------------
      LOOP:  cpu time   32.7814: real time   32.8736

 eigenvalue-minimisations  : 19067
 total energy-change (2. order) : 0.1059121E+02  (-0.2690402E+01)
 number of electron     606.0000348 magnetization     127.1899306
 augmentation part      309.0056940 magnetization     102.0148510

 Broyden mixing:
  rms(total) = 0.41079E+01    rms(broyden)= 0.41078E+01
  rms(prec ) = 0.41323E+01
  weight for this iteration     100.00

 eigenvalues of (default mixing * dielectric matrix)
  average eigenvalue GAMMA=   3.5442
 18.5198  1.9773  1.9773  0.9436  0.9436  0.2890  0.1585

 Free energy of the ion-electron system (eV)
  ---------------------------------------------------
  alpha Z        PSCENC =      2794.63637443
  Ewald energy   TEWEN  =    379909.78738770
  -Hartree energ DENC   =   -427656.78400410
  -exchange      EXHF   =         0.00000000
  -V(xc)+E(xc)   XCENC  =       322.06211738
  PAW double counting   =     44587.08690361   -45064.62730822
  entropy T*S    EENTRO =        -0.00953200
  eigenvalues    EBANDS =      -346.17078632
  atomic energy  EATOM  =     44849.80786364
  Solvation  Ediel_sol  =         0.00000000
  ---------------------------------------------------
  free energy    TOTEN  =      -604.21098387 eV

  energy without entropy =     -604.20145188  energy(sigma->0) =     -604.20780654


--------------------------------------------------------------------------------------------------------




--------------------------------------- Iteration      1(  13)  ---------------------------------------


    POTLOK:  cpu time    0.1431: real time    0.1446
    SETDIJ:  cpu time    0.0099: real time    0.0099
    EDDIAG:  cpu time    6.8129: real time    6.8300
  RMM-DIIS:  cpu time   23.8129: real time   23.8748
    ORTHCH:  cpu time    0.7879: real time    0.7885
       DOS:  cpu time    0.0069: real time    0.0069
    CHARGE:  cpu time    1.5927: real time    1.5986
    MIXING:  cpu time    0.0022: real time    0.0022
    --------------------------------------------
      LOOP:  cpu time   33.1686: real time   33.2556

 eigenvalue-minimisations  : 19336
 total energy-change (2. order) : 0.5227244E+00  (-0.6517715E+00)
 number of electron     606.0000349 magnetization     134.3361499
 augmentation part      313.1368342 magnetization     108.9838313

 Broyden mixing:
  rms(total) = 0.38909E+01    rms(broyden)= 0.38908E+01
  rms(prec ) = 0.39053E+01
  weight for this iteration     100.00

 eigenvalues of (default mixing * dielectric matrix)
  average eigenvalue GAMMA=   4.2157
 21.9360  4.1978  4.1978  0.1585  0.2890  1.0473  1.0473  0.8516

 Free energy of the ion-electron system (eV)
  ---------------------------------------------------
  alpha Z        PSCENC =      2794.63637443
  Ewald energy   TEWEN  =    379909.78738770
  -Hartree energ DENC   =   -427603.06974981
  -exchange      EXHF   =         0.00000000
  -V(xc)+E(xc)   XCENC  =       322.54578822
  PAW double counting   =     45035.71925369   -45509.45312447
  entropy T*S    EENTRO =        -0.04474689
  eigenvalues    EBANDS =      -403.61730599
  atomic energy  EATOM  =     44849.80786364
  Solvation  Ediel_sol  =         0.00000000
  ---------------------------------------------------
  free energy    TOTEN  =      -603.68825945 eV

  energy without entropy =     -603.64351257  energy(sigma->0) =     -603.67334383


--------------------------------------------------------------------------------------------------------




--------------------------------------- Iteration      1(  14)  ---------------------------------------


    POTLOK:  cpu time    0.1364: real time    0.1478
    SETDIJ:  cpu time    0.0107: real time    0.0107
    EDDIAG:  cpu time    6.6794: real time    6.7796
  RMM-DIIS:  cpu time   23.7683: real time   23.8993
    ORTHCH:  cpu time    0.7919: real time    0.7936
       DOS:  cpu time    0.0052: real time    0.0052
    CHARGE:  cpu time    1.6012: real time    1.6028
    MIXING:  cpu time    0.0024: real time    0.0024
    --------------------------------------------
      LOOP:  cpu time   32.9956: real time   33.2415

 eigenvalue-minimisations  : 19376
 total energy-change (2. order) :-0.1876762E+01  (-0.1102121E+00)
 number of electron     606.0000350 magnetization     156.1340829
 augmentation part      314.5644753 magnetization     129.8085152

 Broyden mixing:
  rms(total) = 0.36896E+01    rms(broyden)= 0.36895E+01
  rms(prec ) = 0.37123E+01
  weight for this iteration     100.00

 eigenvalues of (default mixing * dielectric matrix)
  average eigenvalue GAMMA=   5.0953
 27.2863 10.4021  3.4736  0.1585  0.2890  1.1574  1.1574  1.0721  0.8613

 Free energy of the ion-electron system (eV)
  ---------------------------------------------------
  alpha Z        PSCENC =      2794.63637443
  Ewald energy   TEWEN  =    379909.78738770
  -Hartree energ DENC   =   -427609.73871233
  -exchange      EXHF   =         0.00000000
  -V(xc)+E(xc)   XCENC  =       324.10602853
  PAW double counting   =     45369.16987324   -45846.26907813
  entropy T*S    EENTRO =        -0.05106920
  eigenvalues    EBANDS =      -397.01368906
  atomic energy  EATOM  =     44849.80786364
  Solvation  Ediel_sol  =         0.00000000
  ---------------------------------------------------
  free energy    TOTEN  =      -605.56502118 eV

  energy without entropy =     -605.51395198  energy(sigma->0) =     -605.54799811


--------------------------------------------------------------------------------------------------------




--------------------------------------- Iteration      1(  15)  ---------------------------------------


    POTLOK:  cpu time    0.1442: real time    0.1453
    SETDIJ:  cpu time    0.0097: real time    0.0097
    EDDIAG:  cpu time    6.8240: real time    6.8413
  RMM-DIIS:  cpu time   23.8424: real time   23.8994
    ORTHCH:  cpu time    0.8161: real time    0.8177
       DOS:  cpu time    0.0026: real time    0.0026
    CHARGE:  cpu time    1.5957: real time    1.6003
    MIXING:  cpu time    0.0025: real time    0.0025
    --------------------------------------------
      LOOP:  cpu time   33.2372: real time   33.3188

 eigenvalue-minimisations  : 19405
 total energy-change (2. order) :-0.3871147E+01  (-0.1105412E+00)
 number of electron     606.0000352 magnetization     173.0367904
 augmentation part      315.0285205 magnetization     143.5072203

 Broyden mixing:
  rms(total) = 0.31667E+01    rms(broyden)= 0.31665E+01
  rms(prec ) = 0.31785E+01
  weight for this iteration     100.00

 eigenvalues of (default mixing * dielectric matrix)
  average eigenvalue GAMMA=   5.4554
 32.5717 11.6079  4.0400  1.8141  0.1585  0.2890  1.0905  1.0905  1.0420  0.8496

 Free energy of the ion-electron system (eV)
  ---------------------------------------------------
  alpha Z        PSCENC =      2794.63637443
  Ewald energy   TEWEN  =    379909.78738770
[...]
   0.106E-02 -.317E+02 -.458E+03   -.100E-02 0.316E+02 0.458E+03   -.383E-04 0.893E-01 0.286E-01   -.167E-05 0.267E-01 0.661E-01
   0.812E+01 0.135E+02 -.731E+03   -.836E+01 -.135E+02 0.731E+03   0.245E+00 -.234E-01 -.346E+00   0.358E-02 -.224E-01 0.457E-01
   -.812E+01 0.135E+02 -.731E+03   0.837E+01 -.135E+02 0.731E+03   -.245E+00 -.232E-01 -.346E+00   -.359E-02 -.223E-01 0.457E-01
   0.506E-03 0.568E+01 -.102E+04   -.483E-03 -.573E+01 0.102E+04   -.476E-04 0.514E-01 -.618E+00   -.109E-04 -.103E-01 0.583E-01
   -.118E-02 0.392E+01 -.103E+04   0.121E-02 -.406E+01 0.103E+04   0.188E-04 0.147E+00 -.289E+00   0.152E-04 -.575E-02 0.647E-01
   -.786E+00 -.894E+01 -.124E+04   0.747E+00 0.902E+01 0.124E+04   0.316E-01 -.104E+00 0.804E-01   0.623E-02 0.155E-01 0.417E-01
   0.785E+00 -.894E+01 -.124E+04   -.747E+00 0.902E+01 0.124E+04   -.316E-01 -.104E+00 0.804E-01   -.623E-02 0.155E-01 0.416E-01
   -.150E-04 0.261E+01 -.149E+04   0.179E-04 -.263E+01 0.149E+04   -.135E-03 0.104E-01 0.223E-01   -.277E-05 0.285E-02 0.431E-01
   0.577E-03 0.339E+01 -.149E+04   -.599E-03 -.342E+01 0.149E+04   0.621E-04 0.305E-01 -.917E-01   -.306E-05 0.108E-02 0.549E-01
   -.549E+00 0.255E+01 -.176E+04   0.560E+00 -.259E+01 0.176E+04   -.165E-01 0.541E-01 -.238E+00   0.332E-02 -.992E-02 0.648E-01
   0.551E+00 0.255E+01 -.176E+04   -.562E+00 -.259E+01 0.176E+04   0.165E-01 0.542E-01 -.238E+00   -.331E-02 -.993E-02 0.648E-01
   -.400E-02 -.255E+01 -.200E+04   0.407E-02 0.257E+01 0.200E+04   -.478E-04 -.198E-01 0.539E-01   0.286E-05 -.289E-02 0.473E-01
   0.329E-02 -.188E+01 -.200E+04   -.332E-02 0.190E+01 0.200E+04   -.125E-05 -.264E-01 0.608E-01   -.999E-05 -.190E-02 0.506E-01
   -.635E+00 -.235E+01 -.225E+04   0.637E+00 0.238E+01 0.225E+04   -.458E-02 -.570E-01 0.472E-01   0.175E-02 0.166E-01 0.531E-01
   0.634E+00 -.235E+01 -.225E+04   -.635E+00 0.238E+01 0.225E+04   0.452E-02 -.571E-01 0.471E-01   -.174E-02 0.166E-01 0.531E-01
   0.224E-02 0.298E+01 -.252E+04   -.231E-02 -.302E+01 0.252E+04   0.108E-04 0.387E-01 -.768E-01   -.360E-05 -.418E-02 0.688E-01
   -.228E-03 0.293E+01 -.252E+04   0.193E-03 -.297E+01 0.252E+04   0.195E-04 0.410E-01 -.563E-01   0.116E-05 -.575E-02 0.709E-01
   -.616E-01 0.340E+01 -.275E+04   0.561E-01 -.341E+01 0.275E+04   0.240E-02 0.219E-01 0.966E-01   0.341E-02 -.209E-01 0.832E-01
   0.587E-01 0.340E+01 -.275E+04   -.531E-01 -.341E+01 0.275E+04   -.229E-02 0.218E-01 0.966E-01   -.341E-02 -.209E-01 0.832E-01
   0.331E-02 -.803E+01 -.300E+04   -.341E-02 0.797E+01 0.300E+04   -.112E-04 0.453E-01 0.361E+00   0.842E-05 0.108E-01 0.939E-01
   -.126E-02 -.801E+01 -.300E+04   0.125E-02 0.795E+01 0.300E+04   0.544E-04 0.496E-01 0.359E+00   -.310E-05 0.120E-01 0.938E-01
   -.983E-01 0.553E+01 -.328E+04   0.973E-01 -.563E+01 0.328E+04   -.362E-02 0.908E-01 0.308E+00   0.388E-02 0.112E-01 0.431E-01
   0.958E-01 0.553E+01 -.328E+04   -.947E-01 -.563E+01 0.328E+04   0.370E-02 0.908E-01 0.308E+00   -.389E-02 0.112E-01 0.431E-01
   0.166E-02 0.177E+02 -.349E+04   -.173E-02 -.177E+02 0.349E+04   0.393E-05 0.187E-02 0.553E+00   0.541E-05 0.862E-02 0.109E-01
   0.101E-02 0.177E+02 -.349E+04   -.106E-02 -.177E+02 0.349E+04   -.229E-03 0.614E-02 0.548E+00   -.577E-05 0.103E-01 0.969E-02
   -.144E-02 -.439E+02 -.373E+04   -.983E-02 0.442E+02 0.372E+04   0.721E-02 -.275E+00 0.618E+00   0.320E-02 -.196E-01 -.787E-01
   0.325E-02 -.439E+02 -.373E+04   0.789E-02 0.442E+02 0.372E+04   -.717E-02 -.275E+00 0.618E+00   -.320E-02 -.196E-01 -.787E-01
   -.582E-04 0.599E+01 -.408E+04   -.192E-04 -.536E+01 0.408E+04   0.611E-04 -.632E+00 0.239E+01   0.294E-06 -.590E-02 -.180E-01
   0.199E-02 0.614E+01 -.408E+04   -.203E-02 -.551E+01 0.408E+04   -.322E-04 -.630E+00 0.240E+01   -.452E-06 -.555E-02 -.143E-01
   -.162E-01 0.952E+02 -.420E+04   0.128E-01 -.946E+02 0.420E+04   0.263E-02 -.600E+00 0.316E+01   0.712E-03 -.349E-01 -.481E-01
   0.143E-01 0.952E+02 -.420E+04   -.108E-01 -.946E+02 0.420E+04   -.254E-02 -.600E+00 0.316E+01   -.719E-03 -.349E-01 -.481E-01
   -.101E-03 -.767E+02 -.428E+04   0.138E-03 0.746E+02 0.428E+04   -.640E-05 0.208E+01 0.588E+01   0.785E-05 0.610E-01 0.415E-01
   -.853E-03 -.767E+02 -.428E+04   0.918E-03 0.746E+02 0.428E+04   0.556E-05 0.209E+01 0.587E+01   -.147E-04 0.618E-01 0.424E-01
 -----------------------------------------------------------------------------------------------
   -.385E-04 -.265E+01 -.282E+01   0.151E-12 0.156E-12 0.109E-10   0.841E-03 0.257E+01 0.106E+01   0.133E-04 0.768E-01 0.174E+01


 POSITION                                       TOTAL-FORCE (eV/Angst)
 -----------------------------------------------------------------------------------
      5.66366      2.70260      7.83248        -0.000047      0.005072     -0.000105
      2.83180      2.70373      7.83453         0.000048      0.005372     -0.001797
      1.41528      0.75485      8.34799        -0.000485     -0.000139      0.000724
      4.24834      0.75485      8.34799         0.000450     -0.000136      0.000652
      5.66365      5.14601      8.94013         0.000008      0.003250      0.000080
      2.83181      5.14729      8.93936        -0.000012      0.001027      0.001269
      1.41633      3.25396      9.66709        -0.000732      0.004441      0.000585
      4.24727      3.25395      9.66710         0.000900      0.004529      0.000451
      5.66366      1.33352     10.26856        -0.000031      0.001451     -0.002539
      2.83181      1.33468     10.27137        -0.000053      0.001814     -0.000423
      1.41646      5.76530     10.89288        -0.001482      0.002972     -0.002454
      4.24714      5.76530     10.89289         0.001690      0.002991     -0.002522
      5.66366      3.87616     11.56233        -0.000002      0.006080     -0.002140
      2.83181      3.87636     11.56416        -0.000063      0.003799     -0.002810
      1.41771      1.97343     12.19716         0.003712      0.006567     -0.001190
      4.24591      1.97344     12.19715        -0.003637      0.006419     -0.001081
      2.83181      0.08265     12.82546         0.000043      0.002801      0.005544
      5.66367      0.08509     12.82688        -0.000124      0.004784     -0.002749
      1.41858      4.50246     13.43547        -0.000229      0.002685     -0.001338
      4.24505      4.50246     13.43546         0.000283      0.002736     -0.001246
      5.66366      2.60836     14.11089         0.000075      0.003674     -0.000619
      2.83182      2.60413     14.12840        -0.000074      0.003744     -0.001314
      1.41945      0.73227     14.76101         0.001215      0.004645     -0.000752
      4.24418      0.73228     14.76102        -0.001123      0.004507     -0.000877
      5.66367      5.15516     15.27823        -0.000066      0.008285      0.005585
      2.83183      5.12179     15.31406        -0.000107      0.007501      0.003571
      1.40382      3.22175     16.01465        -0.000285      0.002945      0.001266
      4.25982      3.22174     16.01464         0.000318      0.003082      0.001371
      2.83182      1.33328     16.79746        -0.000061      0.005772     -0.002128
      5.66367      1.33414     16.77335        -0.000022      0.001907      0.003292
      1.42654      5.71508     17.16061        -0.001150      0.006539      0.003332
      4.23709      5.71508     17.16062         0.001190      0.006542      0.003220
      2.83183      3.73347     17.92035        -0.000003      0.003104      0.000852
      5.66367      3.95719     17.67373        -0.000013      0.007318     -0.003558
      2.83180      5.94962     19.03318        -0.000050     -0.004096      0.001294
      5.66365      6.06641     19.01350         0.000053      0.000768      0.002885
      1.44787      1.73547     19.20574         0.000187     -0.002699      0.000660
      4.21570      1.73545     19.20573        -0.000103     -0.002627      0.000745
      2.83179      3.66348     20.23565        -0.000041     -0.002951      0.000630
      5.66362      3.67251     19.98816        -0.000088      0.000667     -0.002985
      1.40700      5.58375     20.87558        -0.000574      0.000138      0.001187
      4.25657      5.58375     20.87558         0.000596      0.000152      0.001219
      2.83176      1.19699     21.33174         0.000120      0.000468      0.003032
      5.66363      1.20728     21.31684        -0.000000     -0.000989      0.002291
      1.38912      3.07990     22.03202        -0.000118     -0.005278     -0.002347
      4.27442      3.07987     22.03202         0.000323     -0.005009     -0.002320
      5.66363      4.99050     22.71613        -0.000046     -0.008513     -0.003645
      2.83178      4.98799     22.72222         0.000054     -0.002922     -0.003164
      1.41304      0.58555     23.29331        -0.000907     -0.006565     -0.001187
      4.25052      0.58553     23.29330         0.000960     -0.006446     -0.001178
      2.83179      2.47562     23.93556        -0.000145     -0.003679     -0.003444
      5.66363      2.47601     23.93868         0.000027     -0.003759     -0.000362
      1.41493      4.37550     24.59922        -0.001819     -0.000915      0.000077
      4.24866      4.37550     24.59922         0.001653     -0.000751      0.000112
      2.83178      6.28622     25.20890         0.000018     -0.006053     -0.001916
      5.66364      6.28735     25.20527        -0.000049     -0.005057      0.001100
      1.41530      1.85615     25.83758        -0.001278     -0.006610     -0.000969
      4.24828      1.85615     25.83759         0.001269     -0.006730     -0.001106
      5.66365      3.75731     26.49164        -0.000068     -0.005529     -0.000446
      2.83180      3.75587     26.49083        -0.000024     -0.003306      0.001673
      1.41571      5.66248     27.10854         0.000330     -0.004974     -0.000077
      4.24787      5.66248     27.10855        -0.000103     -0.005004     -0.000207
      2.83181      1.23820     27.72643        -0.000115     -0.004507      0.002043
      5.66365      1.23795     27.72658         0.000028     -0.002829      0.002661
      1.41571      3.12431     28.41133        -0.000744     -0.002525      0.000440
      4.24789      3.12430     28.41134         0.000892     -0.002403      0.000379
      5.66366      5.03072     29.02984        -0.000076     -0.004363      0.001447
      2.83181      5.03075     29.03008        -0.000297     -0.001906      0.000880
      1.41572      0.62067     29.62766        -0.000872     -0.000627     -0.000811
      4.24791      0.62067     29.62767         0.000762     -0.000623     -0.000869
      2.83181      2.51391     30.35922        -0.000027     -0.002295     -0.000257
      5.66367      2.51439     30.36004        -0.000077     -0.004304     -0.001616
      1.41610      4.45624     30.95318        -0.000043     -0.005114      0.001401
      4.24750      4.45624     30.95318         0.000187     -0.005133      0.001405
      2.83180      0.07445     31.46542         0.000028     -0.001957      0.000866
      5.66365      0.07357     31.46583         0.000044     -0.001223      0.000327
 -----------------------------------------------------------------------------------
    total drift:                                0.000815     -0.002944     -0.023385


--------------------------------------------------------------------------------------------------------



  FREE ENERGIE OF THE ION-ELECTRON SYSTEM (eV)
  ---------------------------------------------------
  free  energy   TOTEN  =      -607.92801379 eV

  energy  without entropy=     -607.93520908  energy(sigma->0) =     -607.93041222



--------------------------------------------------------------------------------------------------------


    POTLOK:  cpu time    0.1235: real time    0.1235


--------------------------------------------------------------------------------------------------------


 writing wavefunctions
     LOOP+:  cpu time 1503.9481: real time 1509.2297
    4ORBIT:  cpu time    0.0000: real time    0.0000



 total charge     

# of ion       s       p       d       tot
------------------------------------------
    1        0.473   0.323   6.187   6.983
    2        0.473   0.324   6.188   6.985
    3        0.468   0.402   6.199   7.069
    4        0.468   0.402   6.199   7.069
    5        0.463   0.418   6.186   7.068
    6        0.463   0.419   6.187   7.068
    7        0.493   0.535   6.272   7.300
    8        0.493   0.535   6.272   7.300
    9        0.480   0.527   6.245   7.252
   10        0.481   0.527   6.246   7.253
   11        0.477   0.524   6.233   7.233
   12        0.477   0.524   6.233   7.233
   13        0.488   0.536   6.251   7.275
   14        0.489   0.537   6.252   7.277
   15        0.481   0.534   6.235   7.250
   16        0.481   0.534   6.235   7.250
   17        0.479   0.532   6.233   7.244
   18        0.479   0.533   6.231   7.243
   19        0.489   0.543   6.251   7.283
   20        0.489   0.543   6.251   7.283
   21        0.486   0.539   6.235   7.260
   22        0.487   0.539   6.236   7.262
   23        0.474   0.528   6.225   7.227
   24        0.474   0.528   6.225   7.227
   25        0.489   0.541   6.274   7.304
   26        0.492   0.543   6.244   7.279
   27        0.468   0.539   6.308   7.314
   28        0.468   0.539   6.308   7.314
   29        0.456   0.482   6.162   7.100
   30        0.448   0.457   6.180   7.084
   31        0.489   0.558   6.340   7.387
   32        0.489   0.558   6.340   7.387
   33        0.466   0.454   6.212   7.131
   34        1.331   2.269   0.000   3.599
   35        0.507   0.524   6.265   7.296
   36        0.489   0.519   6.293   7.301
   37        0.423   0.413   6.143   6.978
   38        0.423   0.413   6.143   6.978
   39        0.497   0.514   6.250   7.261
   40        0.437   0.459   6.213   7.110
   41        0.504   0.542   6.273   7.319
   42        0.504   0.542   6.273   7.319
   43        0.467   0.510   6.204   7.180
   44        0.467   0.508   6.207   7.181
   45        0.485   0.530   6.242   7.257
   46        0.485   0.530   6.242   7.257
   47        0.493   0.543   6.261   7.297
   48        0.491   0.544   6.248   7.283
   49        0.480   0.533   6.230   7.243
   50        0.480   0.533   6.230   7.243
   51        0.484   0.537   6.238   7.259
   52        0.489   0.543   6.243   7.275
   53        0.488   0.544   6.245   7.277
   54        0.488   0.544   6.245   7.277
   55        0.485   0.540   6.238   7.263
   56        0.485   0.542   6.239   7.266
   57        0.487   0.542   6.244   7.272
   58        0.487   0.542   6.244   7.272
   59        0.485   0.538   6.239   7.262
   60        0.485   0.538   6.239   7.261
   61        0.483   0.538   6.239   7.260
   62        0.483   0.538   6.239   7.260
   63        0.487   0.536   6.246   7.270
   64        0.487   0.537   6.247   7.271
   65        0.478   0.525   6.236   7.240
   66        0.478   0.525   6.236   7.240
   67        0.481   0.527   6.245   7.253
   68        0.481   0.527   6.245   7.253
   69        0.493   0.535   6.269   7.297
   70        0.493   0.535   6.269   7.297
   71        0.463   0.419   6.186   7.068
   72        0.463   0.419   6.186   7.068
   73        0.468   0.402   6.197   7.067
   74        0.468   0.402   6.197   7.067
   75        0.473   0.323   6.185   6.982
   76        0.473   0.323   6.185   6.981
--------------------------------------------------
tot         37.249  40.002 467.608 544.859



 magnetization (x)

# of ion       s       p       d       tot
------------------------------------------
    1        0.003   0.000   2.847   2.849
    2        0.003   0.001   2.844   2.848
    3       -0.007  -0.033   2.687   2.647
    4       -0.007  -0.033   2.687   2.647
    5       -0.006  -0.032   2.661   2.624
    6       -0.006  -0.031   2.659   2.622
    7       -0.018  -0.057   2.325   2.249
    8       -0.018  -0.057   2.325   2.249
    9       -0.016  -0.061   2.438   2.361
   10       -0.015  -0.061   2.421   2.345
   11       -0.017  -0.060   2.418   2.342
   12       -0.017  -0.060   2.418   2.342
   13       -0.014  -0.059   2.280   2.208
   14       -0.013  -0.058   2.283   2.211
   15       -0.015  -0.061   2.336   2.260
   16       -0.015  -0.061   2.336   2.260
   17       -0.016  -0.063   2.341   2.263
   18       -0.015  -0.063   2.353   2.275
   19       -0.014  -0.060   2.270   2.197
   20       -0.014  -0.060   2.270   2.197
   21       -0.013  -0.058   2.345   2.274
   22       -0.012  -0.061   2.312   2.240
   23       -0.016  -0.058   2.386   2.313
   24       -0.016  -0.058   2.386   2.313
   25       -0.016  -0.049   2.288   2.223
   26       -0.010  -0.052   2.356   2.295
   27       -0.014  -0.044   2.134   2.076
   28       -0.014  -0.044   2.134   2.076
   29       -0.008  -0.053   2.618   2.557
   30       -0.009  -0.035   2.660   2.616
   31       -0.015  -0.041   1.980   1.925
   32       -0.015  -0.041   1.980   1.925
   33       -0.008  -0.032   2.642   2.603
   34        0.021  -0.023   0.000  -0.002
   35       -0.014  -0.046   2.249   2.189
   36       -0.016  -0.038   2.250   2.195
   37       -0.008  -0.036   2.770   2.726
   38       -0.008  -0.036   2.770   2.726
   39       -0.017  -0.060   2.336   2.259
   40       -0.009  -0.029   2.492   2.455
   41       -0.014  -0.054   2.213   2.146
   42       -0.014  -0.054   2.213   2.146
   43       -0.016  -0.057   2.466   2.392
   44       -0.013  -0.053   2.437   2.371
   45       -0.014  -0.054   2.294   2.225
   46       -0.014  -0.054   2.294   2.225
   47       -0.013  -0.055   2.226   2.158
   48       -0.014  -0.058   2.275   2.204
   49       -0.016  -0.060   2.321   2.245
   50       -0.016  -0.060   2.321   2.245
   51       -0.015  -0.059   2.291   2.216
   52       -0.015  -0.058   2.220   2.147
   53       -0.015  -0.059   2.241   2.167
   54       -0.015  -0.059   2.241   2.167
   55       -0.015  -0.060   2.267   2.193
   56       -0.015  -0.060   2.248   2.173
   57       -0.015  -0.060   2.236   2.161
   58       -0.015  -0.060   2.236   2.161
   59       -0.015  -0.060   2.282   2.207
   60       -0.014  -0.060   2.295   2.221
   61       -0.015  -0.059   2.273   2.198
   62       -0.015  -0.059   2.273   2.198
   63       -0.014  -0.058   2.295   2.224
   64       -0.014  -0.057   2.287   2.216
   65       -0.016  -0.059   2.400   2.325
   66       -0.016  -0.059   2.400   2.325
   67       -0.015  -0.060   2.420   2.346
   68       -0.015  -0.060   2.423   2.348
   69       -0.018  -0.057   2.340   2.265
   70       -0.018  -0.057   2.340   2.265
   71       -0.006  -0.031   2.661   2.624
   72       -0.006  -0.031   2.661   2.625
   73       -0.006  -0.033   2.689   2.650
   74       -0.006  -0.033   2.689   2.650
   75        0.003   0.002   2.852   2.857
   76        0.003   0.002   2.854   2.859
--------------------------------------------------
tot         -0.917  -3.722 179.763 175.125


 total amount of memory used by VASP MPI-rank0   135886. kBytes
=======================================================================

   base      :      30000. kBytes
   nonlr-proj:      22530. kBytes
   fftplans  :       5273. kBytes
   grid      :      14093. kBytes
   one-center:        590. kBytes
   wavefun   :      63400. kBytes

  
  
 General timing and accounting informations for this job:
 ========================================================
  
                  Total CPU time used (sec):     1575.360
                            User time (sec):     1560.821
                          System time (sec):       14.539
                         Elapsed time (sec):     1594.966
  
                   Maximum memory used (kb):      222860.
                   Average memory used (kb):           0.
  
                          Minor page faults:        48057
                          Major page faults:            4
                 Voluntary context switches:       184040
