 running on  128 total cores
 distrk:  each k-point on   64 cores,    2 groups
 distr:  one band on    4 cores,   16 groups
 using from now: INCAR     
 vasp.5.4.4.18Apr17-6-g9f103f2a35 (build Nov  8 2022 18:58:45) complex           
 POSCAR found type information on POSCAR  Fe S  Fe
 POSCAR found :  3 types and      76 ions
 scaLAPACK will be used

 ----------------------------------------------------------------------------- 
|                                                                             |
|           W    W    AA    RRRRR   N    N  II  N    N   GGGG   !!!           |
|           W    W   A  A   R    R  NN   N  II  NN   N  G    G  !!!           |
|           W    W  A    A  R    R  N N  N  II  N N  N  G       !!!           |
|           W WW W  AAAAAA  RRRRR   N  N N  II  N  N N  G  GGG   !            |
|           WW  WW  A    A  R   R   N   NN  II  N   NN  G    G                |
|           W    W  A    A  R    R  N    N  II  N    N   GGGG   !!!           |
|                                                                             |
|      For optimal performance we recommend to set                            |
|        NCORE= 4 - approx SQRT( number of cores)                             |
|      NCORE specifies how many cores store one orbital (NPAR=cpu/NCORE).     |
|      This setting can  greatly improve the performance of VASP for DFT.     |
|      The default,   NCORE=1            might be grossly inefficient         |
|      on modern multi-core architectures or massively parallel machines.     |
|      Do your own testing !!!!                                               |
|      Unfortunately you need to use the default for GW and RPA calculations. |
|      (for HF NCORE is supported but not extensively tested yet)             |
|                                                                             |
 ----------------------------------------------------------------------------- 


 ----------------------------------------------------------------------------- 
|                                                                             |
|           W    W    AA    RRRRR   N    N  II  N    N   GGGG   !!!           |
|           W    W   A  A   R    R  NN   N  II  NN   N  G    G  !!!           |
|           W    W  A    A  R    R  N N  N  II  N N  N  G       !!!           |
|           W WW W  AAAAAA  RRRRR   N  N N  II  N  N N  G  GGG   !            |
|           WW  WW  A    A  R   R   N   NN  II  N   NN  G    G                |
|           W    W  A    A  R    R  N    N  II  N    N   GGGG   !!!           |
|                                                                             |
|      You have enabled k-point parallelism (KPAR>1).                         |
|      This developmental code was originally  written by Paul Kent at ORNL,  |
|      and carefully double checked in Vienna.                                |
|      GW as well as linear response parallelism added by Martijn Marsman     |
|      and Georg Kresse.                                                      |
|      Carefully verify results versus KPAR=1.                                |
|      Report problems to Paul Kent and Vienna.                               |
|                                                                             |
 ----------------------------------------------------------------------------- 

 LDA part: xc-table for Pade appr. of Perdew
 POSCAR, INCAR and KPOINTS ok, starting setup
 resort distribution
 resort distribution
 resort distribution
 resort distribution
 resort distribution
 resort distribution
 resort distribution
 resort distribution
 resort distribution
 resort distribution
 resort distribution
 resort distribution
 resort distribution
 resort distribution
 resort distribution
 resort distribution
 resort distribution
 resort distribution
 resort distribution
 resort distribution
 resort distribution
 resort distribution
 resort distribution
 resort distribution
 resort distribution
 resort distribution
 resort distribution
 resort distribution
 resort distribution
 resort distribution
 resort distribution
 resort distribution
 resort distribution
 resort distribution
 resort distribution
 resort distribution
 resort distribution
 resort distribution
 resort distribution
 resort distribution
 resort distribution
 resort distribution
 resort distribution
 resort distribution
 resort distribution
 resort distribution
 resort distribution
 resort distribution
 resort distribution
 resort distribution
 resort distribution
 resort distribution
 resort distribution
 resort distribution
 resort distribution
 resort distribution
 resort distribution
 resort distribution
 resort distribution
 resort distribution
 resort distribution
 resort distribution
 resort distribution
 resort distribution
 resort distribution
 resort distribution
 resort distribution
 resort distribution
 resort distribution
 resort distribution
 resort distribution
 resort distribution
 resort distribution
 resort distribution
 resort distribution
 resort distribution
 resort distribution
 resort distribution
 resort distribution
 resort distribution
 resort distribution
 resort distribution
 resort distribution
 resort distribution
 resort distribution
 resort distribution
 resort distribution
 resort distribution
 resort distribution
 resort distribution
 resort distribution
 resort distribution
 resort distribution
 resort distribution
 resort distribution
 resort distribution
 resort distribution
 resort distribution
 resort distribution
 resort distribution
 resort distribution
 resort distribution
 resort distribution
 resort distribution
 resort distribution
 resort distribution
 resort distribution
 resort distribution
 resort distribution
 resort distribution
 resort distribution
 resort distribution
 resort distribution
 resort distribution
 resort distribution
 resort distribution
 resort distribution
 resort distribution
 resort distribution
 resort distribution
 resort distribution
 resort distribution
 resort distribution
 resort distribution
 resort distribution
 resort distribution
 resort distribution
 resort distribution
 FFT: planning ...
 WAVECAR not read
 augmentation electrons   605.86010071212274     
 soft         electrons   0.0000000000000000     
 augmentation electrons   605.86010071212274     
 soft         electrons   0.0000000000000000     
 total        electrons   605.86010071212274     
 augmentation electrons   605.86010071212274     
 soft         electrons   0.0000000000000000     
 total        electrons   605.86010071212274     
 augmentation electrons   605.86010071212274     
 soft         electrons   0.0000000000000000     
 total        electrons   605.86010071212274     
 augmentation electrons   605.86010071212274     
 soft         electrons   0.0000000000000000     
 total        electrons   605.86010071212274     
 augmentation electrons   605.86010071212274     
 soft         electrons   0.0000000000000000     
 total        electrons   605.86010071212274     
 augmentation electrons   605.86010071212274     
 soft         electrons   0.0000000000000000     
 total        electrons   605.86010071212274     
 augmentation electrons   605.86010071212274     
 soft         electrons   0.0000000000000000     
 total        electrons   605.86010071212274     
 augmentation electrons   605.86010071212274     
 soft         electrons   0.0000000000000000     
 total        electrons   605.86010071212274     
 augmentation electrons   605.86010071212274     
 soft         electrons   0.0000000000000000     
 total        electrons   605.86010071212274     
 augmentation electrons   605.86010071212274     
 soft         electrons   0.0000000000000000     
 total        electrons   605.86010071212274     
 augmentation electrons   605.86010071212274     
 soft         electrons   0.0000000000000000     
 total        electrons   605.86010071212274     
 augmentation electrons   605.86010071212274     
 soft         electrons   0.0000000000000000     
 total        electrons   605.86010071212274     
 augmentation electrons   605.86010071212274     
 soft         electrons   0.0000000000000000     
 total        electrons   605.86010071212274     
 augmentation electrons   605.86010071212274     
 soft         electrons   0.0000000000000000     
 total        electrons   605.86010071212274     
 augmentation electrons   605.86010071212274     
 soft         electrons   0.0000000000000000     
 total        electrons   605.86010071212274     
 total        electrons   605.86010071212274     
 augmentation electrons   605.86010071212274     
 soft         electrons   0.0000000000000000     
 total        electrons   605.86010071212274     
 augmentation electrons   605.86010071212274     
 soft         electrons   0.0000000000000000     
 total        electrons   605.86010071212274     
 augmentation electrons   605.86010071212274     
 soft         electrons   0.0000000000000000     
 total        electrons   605.86010071212274     
 augmentation electrons   605.86010071212274     
 soft         electrons   0.0000000000000000     
 total        electrons   605.86010071212274     
 augmentation electrons   605.86010071212274     
 soft         electrons   0.0000000000000000     
 total        electrons   605.86010071212274     
 augmentation electrons   605.86010071212274     
 soft         electrons   0.0000000000000000     
 total        electrons   605.86010071212274     
 augmentation electrons   605.86010071212274     
 soft         electrons   0.0000000000000000     
 total        electrons   605.86010071212274     
 augmentation electrons   605.86010071212274     
 soft         electrons   0.0000000000000000     
 total        electrons   605.86010071212274     
 augmentation electrons   605.86010071212274     
 soft         electrons   0.0000000000000000     
 total        electrons   605.86010071212274     
 augmentation electrons   605.86010071212274     
 soft         electrons   0.0000000000000000     
 total        electrons   605.86010071212274     
 augmentation electrons   605.86010071212274     
 soft         electrons   0.0000000000000000     
 total        electrons   605.86010071212274     
 augmentation electrons   605.86010071212274     
 soft         electrons   0.0000000000000000     
 total        electrons   605.86010071212274     
 augmentation electrons   605.86010071212274     
 soft         electrons   0.0000000000000000     
 total        electrons   605.86010071212274     
 augmentation electrons   605.86010071212274     
 soft         electrons   0.0000000000000000     
 total        electrons   605.86010071212274     
 augmentation electrons   605.86010071212274     
 soft         electrons   0.0000000000000000     
 total        electrons   605.86010071212274     
 augmentation electrons   605.86010071212274     
 soft         electrons   0.0000000000000000     
 total        electrons   605.86010071212274     
 augmentation electrons   605.86010071212274     
 soft         electrons   0.0000000000000000     
 total        electrons   605.86010071212274     
 augmentation electrons   605.86010071212274     
 soft         electrons   0.0000000000000000     
 total        electrons   605.86010071212274     
 augmentation electrons   605.86010071212274     
 soft         electrons   0.0000000000000000     
 total        electrons   605.86010071212274     
 augmentation electrons   605.86010071212274     
 soft         electrons   0.0000000000000000     
 total        electrons   605.86010071212274     
 augmentation electrons   605.86010071212274     
 soft         electrons   0.0000000000000000     
 total        electrons   605.86010071212274     
 augmentation electrons   605.86010071212274     
 soft         electrons   0.0000000000000000     
 total        electrons   605.86010071212274     
 augmentation electrons   605.86010071212274     
 soft         electrons   0.0000000000000000     
 total        electrons   605.86010071212274     
 augmentation electrons   605.86010071212274     
 soft         electrons   0.0000000000000000     
 total        electrons   605.86010071212274     
 augmentation electrons   605.86010071212274     
 soft         electrons   0.0000000000000000     
 total        electrons   605.86010071212274     
 augmentation electrons   605.86010071212274     
 soft         electrons   0.0000000000000000     
 total        electrons   605.86010071212274     
 augmentation electrons   605.86010071212274     
 soft         electrons   0.0000000000000000     
 total        electrons   605.86010071212274     
 augmentation electrons   605.86010071212274     
 soft         electrons   0.0000000000000000     
 total        electrons   605.86010071212274     
 augmentation electrons   605.86010071212274     
 soft         electrons   0.0000000000000000     
 total        electrons   605.86010071212274     
 augmentation electrons   605.86010071212274     
 soft         electrons   0.0000000000000000     
 total        electrons   605.86010071212274     
 augmentation electrons   605.86010071212274     
 soft         electrons   0.0000000000000000     
 total        electrons   605.86010071212274     
 augmentation electrons   605.86010071212274     
 soft         electrons   0.0000000000000000     
 total        electrons   605.86010071212274     
 augmentation electrons   605.86010071212274     
 soft         electrons   0.0000000000000000     
 total        electrons   605.86010071212274     
 augmentation electrons   605.86010071212274     
 soft         electrons   0.0000000000000000     
 total        electrons   605.86010071212274     
 augmentation electrons   605.86010071212274     
 soft         electrons   0.0000000000000000     
 total        electrons   605.86010071212274     
 augmentation electrons   605.86010071212274     
 soft         electrons   0.0000000000000000     
 total        electrons   605.86010071212274     
 augmentation electrons   605.86010071212274     
 soft         electrons   0.0000000000000000     
 total        electrons   605.86010071212274     
 augmentation electrons   605.86010071212274     
 soft         electrons   0.0000000000000000     
 total        electrons   605.86010071212274     
 augmentation electrons   605.86010071212274     
 soft         electrons   0.0000000000000000     
 total        electrons   605.86010071212274     
 augmentation electrons   605.86010071212274     
 soft         electrons   0.0000000000000000     
 total        electrons   605.86010071212274     
 augmentation electrons   605.86010071212274     
 soft         electrons   0.0000000000000000     
 total        electrons   605.86010071212274     
 augmentation electrons   605.86010071212274     
 soft         electrons   0.0000000000000000     
 total        electrons   605.86010071212274     
 augmentation electrons   605.86010071212274     
 soft         electrons   0.0000000000000000     
 total        electrons   605.86010071212274     
 augmentation electrons   605.86010071212274     
 soft         electrons   0.0000000000000000     
 total        electrons   605.86010071212274     
 augmentation electrons   605.86010071212274     
 soft         electrons   0.0000000000000000     
 total        electrons   605.86010071212274     
 augmentation electrons   605.86010071212274     
 soft         electrons   0.0000000000000000     
 total        electrons   605.86010071212274     
 augmentation electrons   605.86010071212274     
 soft         electrons   0.0000000000000000     
 total        electrons   605.86010071212274     
 augmentation electrons   605.86010071212274     
 soft         electrons   0.0000000000000000     
 total        electrons   605.86010071212274     
 augmentation electrons   605.86010071212274     
 soft         electrons   0.0000000000000000     
 augmentation electrons   605.86010071212274     
 soft         electrons   0.0000000000000000     
 augmentation electrons   605.86010071212274     
 soft         electrons   0.0000000000000000     
 augmentation electrons   605.86010071212274     
 soft         electrons   0.0000000000000000     
 augmentation electrons   605.86010071212274     
 soft         electrons   0.0000000000000000     
 augmentation electrons   605.86010071212274     
 soft         electrons   0.0000000000000000     
 augmentation electrons   605.86010071212274     
 soft         electrons   0.0000000000000000     
 augmentation electrons   605.86010071212274     
 soft         electrons   0.0000000000000000     
 augmentation electrons   605.86010071212274     
 soft         electrons   0.0000000000000000     
 augmentation electrons   605.86010071212274     
 soft         electrons   0.0000000000000000     
 augmentation electrons   605.86010071212274     
 soft         electrons   0.0000000000000000     
 total        electrons   605.86010071212274     
 augmentation electrons   605.86010071212274     
 soft         electrons   0.0000000000000000     
 total        electrons   605.86010071212274     
 augmentation electrons   605.86010071212274     
 soft         electrons   0.0000000000000000     
 total        electrons   605.86010071212274     
 augmentation electrons   605.86010071212274     
 soft         electrons   0.0000000000000000     
 total        electrons   605.86010071212274     
 augmentation electrons   605.86010071212274     
 soft         electrons   0.0000000000000000     
 total        electrons   605.86010071212274     
 augmentation electrons   605.86010071212274     
 soft         electrons   0.0000000000000000     
 total        electrons   605.86010071212274     
 augmentation electrons   605.86010071212274     
 soft         electrons   0.0000000000000000     
 total        electrons   605.86010071212274     
 augmentation electrons   605.86010071212274     
 soft         electrons   0.0000000000000000     
 total        electrons   605.86010071212274     
 augmentation electrons   605.86010071212274     
 soft         electrons   0.0000000000000000     
 total        electrons   605.86010071212274     
 augmentation electrons   605.86010071212274     
 soft         electrons   0.0000000000000000     
 total        electrons   605.86010071212274     
 total        electrons   605.86010071212274     
 total        electrons   605.86010071212274     
 augmentation electrons   605.86010071212274     
 soft         electrons   0.0000000000000000     
 total        electrons   605.86010071212274     
 augmentation electrons   605.86010071212274     
 soft         electrons   0.0000000000000000     
 total        electrons   605.86010071212274     
 augmentation electrons   605.86010071212274     
 soft         electrons   0.0000000000000000     
 total        electrons   605.86010071212274     
 total        electrons   605.86010071212274     
 augmentation electrons   605.86010071212274     
 soft         electrons   0.0000000000000000     
 total        electrons   605.86010071212274     
 total        electrons   605.86010071212274     
 total        electrons   605.86010071212274     
 augmentation electrons   605.86010071212274     
 soft         electrons   0.0000000000000000     
 total        electrons   605.86010071212274     
 augmentation electrons   605.86010071212274     
 soft         electrons   0.0000000000000000     
 total        electrons   605.86010071212274     
 total        electrons   605.86010071212274     
 augmentation electrons   605.86010071212274     
 soft         electrons   0.0000000000000000     
 total        electrons   605.86010071212274     
 total        electrons   605.86010071212274     
 augmentation electrons   605.86010071212274     
 soft         electrons   0.0000000000000000     
 total        electrons   605.86010071212274     
 augmentation electrons   605.86010071212274     
 soft         electrons   0.0000000000000000     
 total        electrons   605.86010071212274     
 total        electrons   605.86010071212274     
 total        electrons   605.86010071212274     
 augmentation electrons   605.86010071212274     
 soft         electrons   0.0000000000000000     
 total        electrons   605.86010071212274     
 total        electrons   605.86010071212274     
 augmentation electrons   605.86010071212274     
 soft         electrons   0.0000000000000000     
 total        electrons   605.86010071212274     
 augmentation electrons   605.86010071212274     
 soft         electrons   0.0000000000000000     
 total        electrons   605.86010071212274     
 augmentation electrons   605.86010071212274     
 soft         electrons   0.0000000000000000     
 total        electrons   605.86010071212274     
 augmentation electrons   605.86010071212274     
 soft         electrons   0.0000000000000000     
 total        electrons   605.86010071212274     
 augmentation electrons   605.86010071212274     
 soft         electrons   0.0000000000000000     
 total        electrons   605.86010071212274     
 augmentation electrons   605.86010071212274     
 soft         electrons   0.0000000000000000     
 total        electrons   605.86010071212274     
 augmentation electrons   605.86010071212274     
 soft         electrons   0.0000000000000000     
 total        electrons   605.86010071212274     
 augmentation electrons   605.86010071212274     
 soft         electrons   0.0000000000000000     
 total        electrons   605.86010071212274     
 augmentation electrons   605.86010071212274     
 soft         electrons   0.0000000000000000     
 total        electrons   605.86010071212274     
 augmentation electrons   605.86010071212274     
 soft         electrons   0.0000000000000000     
 total        electrons   605.86010071212274     
 augmentation electrons   605.86010071212274     
 soft         electrons   0.0000000000000000     
 total        electrons   605.86010071212274     
 augmentation electrons   605.86010071212274     
 soft         electrons   0.0000000000000000     
 total        electrons   605.86010071212274     
 augmentation electrons   605.86010071212274     
 soft         electrons   0.0000000000000000     
 total        electrons   605.86010071212274     
 augmentation electrons   605.86010071212274     
 soft         electrons   0.0000000000000000     
 total        electrons   605.86010071212274     
 augmentation electrons   605.86010071212274     
 soft         electrons   0.0000000000000000     
 total        electrons   605.86010071212274     
 augmentation electrons   605.86010071212274     
 soft         electrons   0.0000000000000000     
 total        electrons   605.86010071212274     
 augmentation electrons   605.86010071212274     
 soft         electrons   0.0000000000000000     
 total        electrons   605.86010071212274     
 augmentation electrons   605.86010071212274     
 soft         electrons   0.0000000000000000     
 total        electrons   605.86010071212274     
 augmentation electrons   605.86010071212274     
 soft         electrons   0.0000000000000000     
 total        electrons   605.86010071212274     
 augmentation electrons   605.86010071212274     
 soft         electrons   0.0000000000000000     
 total        electrons   605.86010071212274     
 augmentation electrons   605.86010071212274     
 soft         electrons   0.0000000000000000     
 total        electrons   605.86010071212274     
 augmentation electrons   605.86010071212274     
 soft         electrons   0.0000000000000000     
 total        electrons   605.86010071212274     
 augmentation electrons   605.86010071212274     
 soft         electrons   0.0000000000000000     
 total        electrons   605.86010071212274     
 augmentation electrons   605.86010071212274     
 soft         electrons   0.0000000000000000     
 total        electrons   605.86010071212274     
 augmentation electrons   605.86010071212274     
 soft         electrons   0.0000000000000000     
 total        electrons   605.86010071212274     
 augmentation electrons   605.86010071212274     
 soft         electrons   0.0000000000000000     
 total        electrons   605.86010071212274     
 augmentation electrons   605.86010071212274     
 soft         electrons   0.0000000000000000     
 total        electrons   605.86010071212274     
 augmentation electrons   605.86010071212274     
 soft         electrons   0.0000000000000000     
 total        electrons   605.86010071212274     
 augmentation electrons   605.86010071212274     
 soft         electrons   0.0000000000000000     
 total        electrons   605.86010071212274     
 augmentation electrons   605.86010071212274     
 soft         electrons   0.0000000000000000     
 total        electrons   605.86010071212274     
 augmentation electrons   605.86010071212274     
 soft         electrons   0.0000000000000000     
 total        electrons   605.86010071212274     
 augmentation electrons   605.86010071212274     
 soft         electrons   0.0000000000000000     
 total        electrons   605.86010071212274     
 augmentation electrons   605.86010071212274     
 soft         electrons   0.0000000000000000     
 total        electrons   605.86010071212274     
 augmentation electrons   605.86010071212274     
 soft         electrons   0.0000000000000000     
 total        electrons   605.86010071212274     
 augmentation electrons  -3.8822603180823256E-002
 soft         electrons   0.0000000000000000     
 total        electrons  -3.8822603180823256E-002
 augmentation electrons  -3.8822603180823256E-002
 soft         electrons   0.0000000000000000     
 total        electrons  -3.8822603180823256E-002
 augmentation electrons  -3.8822603180823256E-002
 soft         electrons   0.0000000000000000     
 total        electrons  -3.8822603180823256E-002
 augmentation electrons  -3.8822603180823256E-002
 soft         electrons   0.0000000000000000     
 total        electrons  -3.8822603180823256E-002
 augmentation electrons  -3.8822603180823256E-002
 soft         electrons   0.0000000000000000     
 total        electrons  -3.8822603180823256E-002
 augmentation electrons  -3.8822603180823256E-002
 soft         electrons   0.0000000000000000     
 total        electrons  -3.8822603180823256E-002
 augmentation electrons  -3.8822603180823256E-002
 soft         electrons   0.0000000000000000     
 total        electrons  -3.8822603180823256E-002
 augmentation electrons  -3.8822603180823256E-002
 soft         electrons   0.0000000000000000     
 total        electrons  -3.8822603180823256E-002
 augmentation electrons  -3.8822603180823256E-002
 soft         electrons   0.0000000000000000     
 total        electrons  -3.8822603180823256E-002
 augmentation electrons  -3.8822603180823256E-002
 soft         electrons   0.0000000000000000     
 total        electrons  -3.8822603180823256E-002
 augmentation electrons  -3.8822603180823256E-002
 soft         electrons   0.0000000000000000     
 total        electrons  -3.8822603180823256E-002
 augmentation electrons  -3.8822603180823256E-002
 soft         electrons   0.0000000000000000     
 total        electrons  -3.8822603180823256E-002
 augmentation electrons  -3.8822603180823256E-002
 soft         electrons   0.0000000000000000     
 total        electrons  -3.8822603180823256E-002
 augmentation electrons  -3.8822603180823256E-002
 soft         electrons   0.0000000000000000     
 total        electrons  -3.8822603180823256E-002
 augmentation electrons  -3.8822603180823256E-002
 soft         electrons   0.0000000000000000     
 total        electrons  -3.8822603180823256E-002
 augmentation electrons  -3.8822603180823256E-002
 soft         electrons   0.0000000000000000     
 total        electrons  -3.8822603180823256E-002
 augmentation electrons  -3.8822603180823256E-002
 soft         electrons   0.0000000000000000     
 total        electrons  -3.8822603180823256E-002
 augmentation electrons  -3.8822603180823256E-002
 soft         electrons   0.0000000000000000     
 total        electrons  -3.8822603180823256E-002
 augmentation electrons  -3.8822603180823256E-002
 soft         electrons   0.0000000000000000     
 total        electrons  -3.8822603180823256E-002
 augmentation electrons  -3.8822603180823256E-002
 soft         electrons   0.0000000000000000     
 total        electrons  -3.8822603180823256E-002
 augmentation electrons  -3.8822603180823256E-002
 soft         electrons   0.0000000000000000     
 total        electrons  -3.8822603180823256E-002
 augmentation electrons  -3.8822603180823256E-002
 soft         electrons   0.0000000000000000     
 total        electrons  -3.8822603180823256E-002
 augmentation electrons  -3.8822603180823256E-002
 soft         electrons   0.0000000000000000     
 total        electrons  -3.8822603180823256E-002
 augmentation electrons  -3.8822603180823256E-002
 soft         electrons   0.0000000000000000     
 total        electrons  -3.8822603180823256E-002
 augmentation electrons  -3.8822603180823256E-002
 soft         electrons   0.0000000000000000     
 total        electrons  -3.8822603180823256E-002
 augmentation electrons  -3.8822603180823256E-002
 soft         electrons   0.0000000000000000     
 total        electrons  -3.8822603180823256E-002
 augmentation electrons  -3.8822603180823256E-002
 soft         electrons   0.0000000000000000     
 total        electrons  -3.8822603180823256E-002
 augmentation electrons  -3.8822603180823256E-002
 soft         electrons   0.0000000000000000     
 total        electrons  -3.8822603180823256E-002
 augmentation electrons  -3.8822603180823256E-002
 soft         electrons   0.0000000000000000     
 total        electrons  -3.8822603180823256E-002
 augmentation electrons  -3.8822603180823256E-002
 soft         electrons   0.0000000000000000     
 total        electrons  -3.8822603180823256E-002
 augmentation electrons  -3.8822603180823256E-002
 soft         electrons   0.0000000000000000     
 total        electrons  -3.8822603180823256E-002
 augmentation electrons  -3.8822603180823256E-002
 soft         electrons   0.0000000000000000     
 total        electrons  -3.8822603180823256E-002
 augmentation electrons  -3.8822603180823256E-002
 soft         electrons   0.0000000000000000     
 total        electrons  -3.8822603180823256E-002
 augmentation electrons  -3.8822603180823256E-002
 soft         electrons   0.0000000000000000     
 total        electrons  -3.8822603180823256E-002
 augmentation electrons  -3.8822603180823256E-002
 soft         electrons   0.0000000000000000     
 total        electrons  -3.8822603180823256E-002
 augmentation electrons  -3.8822603180823256E-002
 soft         electrons   0.0000000000000000     
 total        electrons  -3.8822603180823256E-002
 augmentation electrons  -3.8822603180823256E-002
 soft         electrons   0.0000000000000000     
 total        electrons  -3.8822603180823256E-002
 augmentation electrons  -3.8822603180823256E-002
 soft         electrons   0.0000000000000000     
 total        electrons  -3.8822603180823256E-002
 augmentation electrons  -3.8822603180823256E-002
 soft         electrons   0.0000000000000000     
 total        electrons  -3.8822603180823256E-002
 augmentation electrons  -3.8822603180823256E-002
 soft         electrons   0.0000000000000000     
 total        electrons  -3.8822603180823256E-002
 augmentation electrons  -3.8822603180823256E-002
 soft         electrons   0.0000000000000000     
 total        electrons  -3.8822603180823256E-002
 augmentation electrons  -3.8822603180823256E-002
 soft         electrons   0.0000000000000000     
 total        electrons  -3.8822603180823256E-002
 augmentation electrons  -3.8822603180823256E-002
 soft         electrons   0.0000000000000000     
 total        electrons  -3.8822603180823256E-002
 augmentation electrons  -3.8822603180823256E-002
 soft         electrons   0.0000000000000000     
 total        electrons  -3.8822603180823256E-002
 augmentation electrons  -3.8822603180823256E-002
 soft         electrons   0.0000000000000000     
 total        electrons  -3.8822603180823256E-002
 augmentation electrons  -3.8822603180823256E-002
 soft         electrons   0.0000000000000000     
 total        electrons  -3.8822603180823256E-002
 augmentation electrons  -3.8822603180823256E-002
 soft         electrons   0.0000000000000000     
 total        electrons  -3.8822603180823256E-002
 augmentation electrons  -3.8822603180823256E-002
 soft         electrons   0.0000000000000000     
 total        electrons  -3.8822603180823256E-002
 augmentation electrons  -3.8822603180823256E-002
 soft         electrons   0.0000000000000000     
 total        electrons  -3.8822603180823256E-002
 augmentation electrons  -3.8822603180823256E-002
 soft         electrons   0.0000000000000000     
 total        electrons  -3.8822603180823256E-002
 augmentation electrons  -3.8822603180823256E-002
 soft         electrons   0.0000000000000000     
 total        electrons  -3.8822603180823256E-002
 augmentation electrons  -3.8822603180823256E-002
 soft         electrons   0.0000000000000000     
 total        electrons  -3.8822603180823256E-002
 augmentation electrons  -3.8822603180823256E-002
 soft         electrons   0.0000000000000000     
 total        electrons  -3.8822603180823256E-002
 augmentation electrons  -3.8822603180823256E-002
 soft         electrons   0.0000000000000000     
 total        electrons  -3.8822603180823256E-002
 augmentation electrons  -3.8822603180823256E-002
 soft         electrons   0.0000000000000000     
 total        electrons  -3.8822603180823256E-002
 augmentation electrons  -3.8822603180823256E-002
 soft         electrons   0.0000000000000000     
 total        electrons  -3.8822603180823256E-002
 augmentation electrons  -3.8822603180823256E-002
 soft         electrons   0.0000000000000000     
 total        electrons  -3.8822603180823256E-002
 augmentation electrons  -3.8822603180823256E-002
 soft         electrons   0.0000000000000000     
 total        electrons  -3.8822603180823256E-002
 augmentation electrons  -3.8822603180823256E-002
 soft         electrons   0.0000000000000000     
 total        electrons  -3.8822603180823256E-002
 augmentation electrons  -3.8822603180823256E-002
 soft         electrons   0.0000000000000000     
 total        electrons  -3.8822603180823256E-002
 augmentation electrons  -3.8822603180823256E-002
 soft         electrons   0.0000000000000000     
 total        electrons  -3.8822603180823256E-002
 augmentation electrons  -3.8822603180823256E-002
 soft         electrons   0.0000000000000000     
 total        electrons  -3.8822603180823256E-002
 augmentation electrons  -3.8822603180823256E-002
 soft         electrons   0.0000000000000000     
 total        electrons  -3.8822603180823256E-002
 augmentation electrons  -3.8822603180823256E-002
 soft         electrons   0.0000000000000000     
 total        electrons  -3.8822603180823256E-002
 augmentation electrons  -3.8822603180823256E-002
 soft         electrons   0.0000000000000000     
 total        electrons  -3.8822603180823256E-002
 augmentation electrons  -3.8822603180823256E-002
 soft         electrons   0.0000000000000000     
 total        electrons  -3.8822603180823256E-002
 augmentation electrons  -3.8822603180823256E-002
 soft         electrons   0.0000000000000000     
 total        electrons  -3.8822603180823256E-002
 augmentation electrons  -3.8822603180823256E-002
 soft         electrons   0.0000000000000000     
 total        electrons  -3.8822603180823256E-002
 augmentation electrons  -3.8822603180823256E-002
 soft         electrons   0.0000000000000000     
 total        electrons  -3.8822603180823256E-002
 augmentation electrons  -3.8822603180823256E-002
 soft         electrons   0.0000000000000000     
 total        electrons  -3.8822603180823256E-002
 augmentation electrons  -3.8822603180823256E-002
 soft         electrons   0.0000000000000000     
 total        electrons  -3.8822603180823256E-002
 augmentation electrons  -3.8822603180823256E-002
 soft         electrons   0.0000000000000000     
 total        electrons  -3.8822603180823256E-002
 augmentation electrons  -3.8822603180823256E-002
 soft         electrons   0.0000000000000000     
 total        electrons  -3.8822603180823256E-002
 augmentation electrons  -3.8822603180823256E-002
 soft         electrons   0.0000000000000000     
 total        electrons  -3.8822603180823256E-002
 augmentation electrons  -3.8822603180823256E-002
 soft         electrons   0.0000000000000000     
 total        electrons  -3.8822603180823256E-002
 augmentation electrons  -3.8822603180823256E-002
 soft         electrons   0.0000000000000000     
 total        electrons  -3.8822603180823256E-002
 augmentation electrons  -3.8822603180823256E-002
 soft         electrons   0.0000000000000000     
 total        electrons  -3.8822603180823256E-002
 augmentation electrons  -3.8822603180823256E-002
 soft         electrons   0.0000000000000000     
 total        electrons  -3.8822603180823256E-002
 augmentation electrons  -3.8822603180823256E-002
 soft         electrons   0.0000000000000000     
 total        electrons  -3.8822603180823256E-002
 augmentation electrons  -3.8822603180823256E-002
 soft         electrons   0.0000000000000000     
 total        electrons  -3.8822603180823256E-002
 augmentation electrons  -3.8822603180823256E-002
 soft         electrons   0.0000000000000000     
 total        electrons  -3.8822603180823256E-002
 augmentation electrons  -3.8822603180823256E-002
 soft         electrons   0.0000000000000000     
 total        electrons  -3.8822603180823256E-002
 augmentation electrons  -3.8822603180823256E-002
 soft         electrons   0.0000000000000000     
 total        electrons  -3.8822603180823256E-002
 augmentation electrons  -3.8822603180823256E-002
 soft         electrons   0.0000000000000000     
 total        electrons  -3.8822603180823256E-002
 augmentation electrons  -3.8822603180823256E-002
 soft         electrons   0.0000000000000000     
 total        electrons  -3.8822603180823256E-002
 augmentation electrons  -3.8822603180823256E-002
 soft         electrons   0.0000000000000000     
 total        electrons  -3.8822603180823256E-002
 augmentation electrons  -3.8822603180823256E-002
 soft         electrons   0.0000000000000000     
 total        electrons  -3.8822603180823256E-002
 augmentation electrons  -3.8822603180823256E-002
 soft         electrons   0.0000000000000000     
 total        electrons  -3.8822603180823256E-002
 augmentation electrons  -3.8822603180823256E-002
 soft         electrons   0.0000000000000000     
 total        electrons  -3.8822603180823256E-002
 augmentation electrons  -3.8822603180823256E-002
 soft         electrons   0.0000000000000000     
 total        electrons  -3.8822603180823256E-002
 augmentation electrons  -3.8822603180823256E-002
 soft         electrons   0.0000000000000000     
 total        electrons  -3.8822603180823256E-002
 augmentation electrons  -3.8822603180823256E-002
 soft         electrons   0.0000000000000000     
 total        electrons  -3.8822603180823256E-002
 augmentation electrons  -3.8822603180823256E-002
 soft         electrons   0.0000000000000000     
 total        electrons  -3.8822603180823256E-002
 augmentation electrons  -3.8822603180823256E-002
 soft         electrons   0.0000000000000000     
 total        electrons  -3.8822603180823256E-002
 augmentation electrons  -3.8822603180823256E-002
 soft         electrons   0.0000000000000000     
 total        electrons  -3.8822603180823256E-002
 augmentation electrons  -3.8822603180823256E-002
 soft         electrons   0.0000000000000000     
 total        electrons  -3.8822603180823256E-002
 augmentation electrons  -3.8822603180823256E-002
 soft         electrons   0.0000000000000000     
 total        electrons  -3.8822603180823256E-002
 augmentation electrons  -3.8822603180823256E-002
 soft         electrons   0.0000000000000000     
 total        electrons  -3.8822603180823256E-002
 augmentation electrons  -3.8822603180823256E-002
 soft         electrons   0.0000000000000000     
 total        electrons  -3.8822603180823256E-002
 augmentation electrons  -3.8822603180823256E-002
 soft         electrons   0.0000000000000000     
 total        electrons  -3.8822603180823256E-002
 augmentation electrons  -3.8822603180823256E-002
 soft         electrons   0.0000000000000000     
 total        electrons  -3.8822603180823256E-002
 augmentation electrons  -3.8822603180823256E-002
 soft         electrons   0.0000000000000000     
 total        electrons  -3.8822603180823256E-002
 augmentation electrons  -3.8822603180823256E-002
 soft         electrons   0.0000000000000000     
 total        electrons  -3.8822603180823256E-002
 augmentation electrons  -3.8822603180823256E-002
 soft         electrons   0.0000000000000000     
 total        electrons  -3.8822603180823256E-002
 augmentation electrons  -3.8822603180823256E-002
 soft         electrons   0.0000000000000000     
 total        electrons  -3.8822603180823256E-002
 augmentation electrons  -3.8822603180823256E-002
 soft         electrons   0.0000000000000000     
 total        electrons  -3.8822603180823256E-002
 augmentation electrons  -3.8822603180823256E-002
 soft         electrons   0.0000000000000000     
 total        electrons  -3.8822603180823256E-002
 augmentation electrons  -3.8822603180823256E-002
 soft         electrons   0.0000000000000000     
 total        electrons  -3.8822603180823256E-002
 augmentation electrons  -3.8822603180823256E-002
 soft         electrons   0.0000000000000000     
 total        electrons  -3.8822603180823256E-002
 augmentation electrons  -3.8822603180823256E-002
 soft         electrons   0.0000000000000000     
 total        electrons  -3.8822603180823256E-002
 augmentation electrons  -3.8822603180823256E-002
 soft         electrons   0.0000000000000000     
 total        electrons  -3.8822603180823256E-002
 augmentation electrons  -3.8822603180823256E-002
 soft         electrons   0.0000000000000000     
 total        electrons  -3.8822603180823256E-002
 augmentation electrons  -3.8822603180823256E-002
 soft         electrons   0.0000000000000000     
 total        electrons  -3.8822603180823256E-002
 augmentation electrons  -3.8822603180823256E-002
 soft         electrons   0.0000000000000000     
 total        electrons  -3.8822603180823256E-002
 augmentation electrons  -3.8822603180823256E-002
 soft         electrons   0.0000000000000000     
 total        electrons  -3.8822603180823256E-002
 augmentation electrons  -3.8822603180823256E-002
 soft         electrons   0.0000000000000000     
 total        electrons  -3.8822603180823256E-002
 augmentation electrons  -3.8822603180823256E-002
 soft         electrons   0.0000000000000000     
 total        electrons  -3.8822603180823256E-002
 augmentation electrons  -3.8822603180823256E-002
 soft         electrons   0.0000000000000000     
 total        electrons  -3.8822603180823256E-002
 augmentation electrons  -3.8822603180823256E-002
 soft         electrons   0.0000000000000000     
 total        electrons  -3.8822603180823256E-002
 augmentation electrons  -3.8822603180823256E-002
 soft         electrons   0.0000000000000000     
 total        electrons  -3.8822603180823256E-002
 augmentation electrons  -3.8822603180823256E-002
 soft         electrons   0.0000000000000000     
 total        electrons  -3.8822603180823256E-002
 augmentation electrons  -3.8822603180823256E-002
 soft         electrons   0.0000000000000000     
 total        electrons  -3.8822603180823256E-002
 augmentation electrons  -3.8822603180823256E-002
 soft         electrons   0.0000000000000000     
 total        electrons  -3.8822603180823256E-002
 augmentation electrons  -3.8822603180823256E-002
 soft         electrons   0.0000000000000000     
 total        electrons  -3.8822603180823256E-002
 augmentation electrons  -3.8822603180823256E-002
 soft         electrons   0.0000000000000000     
 total        electrons  -3.8822603180823256E-002
 augmentation electrons  -3.8822603180823256E-002
 soft         electrons   0.0000000000000000     
 total        electrons  -3.8822603180823256E-002
 augmentation electrons  -3.8822603180823256E-002
 soft         electrons   0.0000000000000000     
 total        electrons  -3.8822603180823256E-002
 augmentation electrons  -3.8822603180823256E-002
 soft         electrons   0.0000000000000000     
 total        electrons  -3.8822603180823256E-002
 augmentation electrons   1475.3002278339982     
 soft         electrons   0.0000000000000000     
 total        electrons   1475.3002278339982     
 augmentation electrons   1475.3002278339982     
 soft         electrons   0.0000000000000000     
 total        electrons   1475.3002278339982     
 augmentation electrons   1475.3002278339982     
 soft         electrons   0.0000000000000000     
 total        electrons   1475.3002278339982     
 augmentation electrons   1475.3002278339982     
 soft         electrons   0.0000000000000000     
 total        electrons   1475.3002278339982     
 augmentation electrons   1475.3002278339982     
 soft         electrons   0.0000000000000000     
 total        electrons   1475.3002278339982     
 augmentation electrons   1475.3002278339982     
 soft         electrons   0.0000000000000000     
 total        electrons   1475.3002278339982     
 augmentation electrons   1475.3002278339982     
 soft         electrons   0.0000000000000000     
 total        electrons   1475.3002278339982     
 augmentation electrons   1475.3002278339982     
 soft         electrons   0.0000000000000000     
 total        electrons   1475.3002278339982     
 augmentation electrons   1475.3002278339982     
 soft         electrons   0.0000000000000000     
 total        electrons   1475.3002278339982     
 augmentation electrons   1475.3002278339982     
 soft         electrons   0.0000000000000000     
 total        electrons   1475.3002278339982     
 augmentation electrons   1475.3002278339982     
 soft         electrons   0.0000000000000000     
 total        electrons   1475.3002278339982     
 augmentation electrons   1475.3002278339982     
 soft         electrons   0.0000000000000000     
 total        electrons   1475.3002278339982     
 augmentation electrons   1475.3002278339982     
 soft         electrons   0.0000000000000000     
 total        electrons   1475.3002278339982     
 augmentation electrons   1475.3002278339982     
 soft         electrons   0.0000000000000000     
 total        electrons   1475.3002278339982     
 augmentation electrons   1475.3002278339982     
 soft         electrons   0.0000000000000000     
 total        electrons   1475.3002278339982     
 augmentation electrons   1475.3002278339982     
 soft         electrons   0.0000000000000000     
 total        electrons   1475.3002278339982     
 augmentation electrons   1475.3002278339982     
 soft         electrons   0.0000000000000000     
 total        electrons   1475.3002278339982     
 augmentation electrons   1475.3002278339982     
 soft         electrons   0.0000000000000000     
 total        electrons   1475.3002278339982     
 augmentation electrons   1475.3002278339982     
 soft         electrons   0.0000000000000000     
 total        electrons   1475.3002278339982     
 augmentation electrons   1475.3002278339982     
 soft         electrons   0.0000000000000000     
 total        electrons   1475.3002278339982     
 augmentation electrons   1475.3002278339982     
 soft         electrons   0.0000000000000000     
 total        electrons   1475.3002278339982     
 augmentation electrons   1475.3002278339982     
 soft         electrons   0.0000000000000000     
 total        electrons   1475.3002278339982     
 augmentation electrons   1475.3002278339982     
 soft         electrons   0.0000000000000000     
 total        electrons   1475.3002278339982     
 augmentation electrons   1475.3002278339982     
 soft         electrons   0.0000000000000000     
 total        electrons   1475.3002278339982     
 augmentation electrons   1475.3002278339982     
 soft         electrons   0.0000000000000000     
 total        electrons   1475.3002278339982     
 augmentation electrons   1475.3002278339982     
 soft         electrons   0.0000000000000000     
 total        electrons   1475.3002278339982     
 augmentation electrons   1475.3002278339982     
 soft         electrons   0.0000000000000000     
 total        electrons   1475.3002278339982     
 augmentation electrons   1475.3002278339982     
 soft         electrons   0.0000000000000000     
 total        electrons   1475.3002278339982     
 augmentation electrons   1475.3002278339982     
 soft         electrons   0.0000000000000000     
 total        electrons   1475.3002278339982     
 augmentation electrons   1475.3002278339982     
 soft         electrons   0.0000000000000000     
 total        electrons   1475.3002278339982     
 augmentation electrons   1475.3002278339982     
 soft         electrons   0.0000000000000000     
 total        electrons   1475.3002278339982     
 augmentation electrons   1475.3002278339982     
 soft         electrons   0.0000000000000000     
 total        electrons   1475.3002278339982     
 augmentation electrons   1475.3002278339982     
 soft         electrons   0.0000000000000000     
 total        electrons   1475.3002278339982     
 augmentation electrons   1475.3002278339982     
 soft         electrons   0.0000000000000000     
 total        electrons   1475.3002278339982     
 augmentation electrons   1475.3002278339982     
 soft         electrons   0.0000000000000000     
 total        electrons   1475.3002278339982     
 augmentation electrons   1475.3002278339982     
 soft         electrons   0.0000000000000000     
 total        electrons   1475.3002278339982     
 augmentation electrons   1475.3002278339982     
 soft         electrons   0.0000000000000000     
 total        electrons   1475.3002278339982     
 augmentation electrons   1475.3002278339982     
 soft         electrons   0.0000000000000000     
 total        electrons   1475.3002278339982     
 augmentation electrons   1475.3002278339982     
 soft         electrons   0.0000000000000000     
 total        electrons   1475.3002278339982     
 augmentation electrons   1475.3002278339982     
 soft         electrons   0.0000000000000000     
 total        electrons   1475.3002278339982     
 augmentation electrons   1475.3002278339982     
 soft         electrons   0.0000000000000000     
 total        electrons   1475.3002278339982     
 augmentation electrons   1475.3002278339982     
 soft         electrons   0.0000000000000000     
 total        electrons   1475.3002278339982     
 augmentation electrons   1475.3002278339982     
 soft         electrons   0.0000000000000000     
 total        electrons   1475.3002278339982     
 augmentation electrons   1475.3002278339982     
 soft         electrons   0.0000000000000000     
 total        electrons   1475.3002278339982     
 augmentation electrons   1475.3002278339982     
 soft         electrons   0.0000000000000000     
 total        electrons   1475.3002278339982     
 augmentation electrons   1475.3002278339982     
 soft         electrons   0.0000000000000000     
 total        electrons   1475.3002278339982     
 augmentation electrons   1475.3002278339982     
 soft         electrons   0.0000000000000000     
 total        electrons   1475.3002278339982     
 augmentation electrons   1475.3002278339982     
 soft         electrons   0.0000000000000000     
 total        electrons   1475.3002278339982     
 augmentation electrons   1475.3002278339982     
 soft         electrons   0.0000000000000000     
 total        electrons   1475.3002278339982     
 augmentation electrons   1475.3002278339982     
 soft         electrons   0.0000000000000000     
 total        electrons   1475.3002278339982     
 augmentation electrons   1475.3002278339982     
 soft         electrons   0.0000000000000000     
 total        electrons   1475.3002278339982     
 augmentation electrons   1475.3002278339982     
 soft         electrons   0.0000000000000000     
 total        electrons   1475.3002278339982     
 augmentation electrons   1475.3002278339982     
 soft         electrons   0.0000000000000000     
 total        electrons   1475.3002278339982     
 augmentation electrons   1475.3002278339982     
 soft         electrons   0.0000000000000000     
 total        electrons   1475.3002278339982     
 augmentation electrons   1475.3002278339982     
 soft         electrons   0.0000000000000000     
 total        electrons   1475.3002278339982     
 augmentation electrons   1475.3002278339982     
 soft         electrons   0.0000000000000000     
 total        electrons   1475.3002278339982     
 augmentation electrons   1475.3002278339982     
 soft         electrons   0.0000000000000000     
 total        electrons   1475.3002278339982     
 augmentation electrons   1475.3002278339982     
 soft         electrons   0.0000000000000000     
 total        electrons   1475.3002278339982     
 augmentation electrons   1475.3002278339982     
 soft         electrons   0.0000000000000000     
 total        electrons   1475.3002278339982     
 augmentation electrons   1475.3002278339982     
 soft         electrons   0.0000000000000000     
 total        electrons   1475.3002278339982     
 augmentation electrons   1475.3002278339982     
 soft         electrons   0.0000000000000000     
 total        electrons   1475.3002278339982     
 augmentation electrons   1475.3002278339982     
 soft         electrons   0.0000000000000000     
 total        electrons   1475.3002278339982     
 augmentation electrons   1475.3002278339982     
 soft         electrons   0.0000000000000000     
 total        electrons   1475.3002278339982     
 augmentation electrons   1475.3002278339982     
 soft         electrons   0.0000000000000000     
 total        electrons   1475.3002278339982     
 augmentation electrons   1327.5534082839981     
 soft         electrons   0.0000000000000000     
 total        electrons   1327.5534082839981     
 augmentation electrons   1327.5534082839981     
 soft         electrons   0.0000000000000000     
 total        electrons   1327.5534082839981     
 augmentation electrons   1327.5534082839981     
 soft         electrons   0.0000000000000000     
 total        electrons   1327.5534082839981     
 augmentation electrons   1327.5534082839981     
 soft         electrons   0.0000000000000000     
 total        electrons   1327.5534082839981     
 augmentation electrons   1327.5534082839981     
 soft         electrons   0.0000000000000000     
 total        electrons   1327.5534082839981     
 augmentation electrons   1327.5534082839981     
 soft         electrons   0.0000000000000000     
 total        electrons   1327.5534082839981     
 augmentation electrons   1327.5534082839981     
 soft         electrons   0.0000000000000000     
 total        electrons   1327.5534082839981     
 augmentation electrons   1327.5534082839981     
 soft         electrons   0.0000000000000000     
 total        electrons   1327.5534082839981     
 augmentation electrons   1327.5534082839981     
 soft         electrons   0.0000000000000000     
 total        electrons   1327.5534082839981     
 augmentation electrons   1327.5534082839981     
 soft         electrons   0.0000000000000000     
 total        electrons   1327.5534082839981     
 augmentation electrons   1327.5534082839981     
 soft         electrons   0.0000000000000000     
 total        electrons   1327.5534082839981     
 augmentation electrons   1327.5534082839981     
 soft         electrons   0.0000000000000000     
 total        electrons   1327.5534082839981     
 augmentation electrons   1327.5534082839981     
 soft         electrons   0.0000000000000000     
 total        electrons   1327.5534082839981     
 augmentation electrons   1327.5534082839981     
 soft         electrons   0.0000000000000000     
 total        electrons   1327.5534082839981     
 augmentation electrons   1327.5534082839981     
 soft         electrons   0.0000000000000000     
 total        electrons   1327.5534082839981     
 augmentation electrons   1327.5534082839981     
 soft         electrons   0.0000000000000000     
 total        electrons   1327.5534082839981     
 augmentation electrons   1327.5534082839981     
 soft         electrons   0.0000000000000000     
 total        electrons   1327.5534082839981     
 augmentation electrons   1327.5534082839981     
 soft         electrons   0.0000000000000000     
 total        electrons   1327.5534082839981     
 augmentation electrons   1327.5534082839981     
 soft         electrons   0.0000000000000000     
 total        electrons   1327.5534082839981     
 augmentation electrons   1327.5534082839981     
 soft         electrons   0.0000000000000000     
 total        electrons   1327.5534082839981     
 augmentation electrons   1327.5534082839981     
 soft         electrons   0.0000000000000000     
 total        electrons   1327.5534082839981     
 augmentation electrons   1327.5534082839981     
 soft         electrons   0.0000000000000000     
 total        electrons   1327.5534082839981     
 augmentation electrons   1327.5534082839981     
 soft         electrons   0.0000000000000000     
 total        electrons   1327.5534082839981     
 augmentation electrons   1327.5534082839981     
 soft         electrons   0.0000000000000000     
 total        electrons   1327.5534082839981     
 augmentation electrons   1327.5534082839981     
 soft         electrons   0.0000000000000000     
 total        electrons   1327.5534082839981     
 augmentation electrons   1327.5534082839981     
 soft         electrons   0.0000000000000000     
 total        electrons   1327.5534082839981     
 augmentation electrons   1327.5534082839981     
 soft         electrons   0.0000000000000000     
 total        electrons   1327.5534082839981     
 augmentation electrons   1327.5534082839981     
 soft         electrons   0.0000000000000000     
 total        electrons   1327.5534082839981     
 augmentation electrons   1327.5534082839981     
 soft         electrons   0.0000000000000000     
 total        electrons   1327.5534082839981     
 augmentation electrons   1327.5534082839981     
 soft         electrons   0.0000000000000000     
 total        electrons   1327.5534082839981     
 augmentation electrons   1327.5534082839981     
 soft         electrons   0.0000000000000000     
 total        electrons   1327.5534082839981     
 augmentation electrons   1327.5534082839981     
 soft         electrons   0.0000000000000000     
 total        electrons   1327.5534082839981     
 augmentation electrons   1327.5534082839981     
 soft         electrons   0.0000000000000000     
 total        electrons   1327.5534082839981     
 augmentation electrons   1327.5534082839981     
 soft         electrons   0.0000000000000000     
 total        electrons   1327.5534082839981     
 augmentation electrons   1327.5534082839981     
 soft         electrons   0.0000000000000000     
 total        electrons   1327.5534082839981     
 augmentation electrons   1327.5534082839981     
 soft         electrons   0.0000000000000000     
 total        electrons   1327.5534082839981     
 augmentation electrons   1327.5534082839981     
 soft         electrons   0.0000000000000000     
 total        electrons   1327.5534082839981     
 augmentation electrons   1327.5534082839981     
 soft         electrons   0.0000000000000000     
 total        electrons   1327.5534082839981     
 augmentation electrons   1327.5534082839981     
 soft         electrons   0.0000000000000000     
 total        electrons   1327.5534082839981     
 augmentation electrons   1327.5534082839981     
 soft         electrons   0.0000000000000000     
 total        electrons   1327.5534082839981     
 augmentation electrons   1327.5534082839981     
 soft         electrons   0.0000000000000000     
 total        electrons   1327.5534082839981     
 augmentation electrons   1327.5534082839981     
 soft         electrons   0.0000000000000000     
 total        electrons   1327.5534082839981     
 augmentation electrons   1327.5534082839981     
 soft         electrons   0.0000000000000000     
 total        electrons   1327.5534082839981     
 augmentation electrons   1327.5534082839981     
 soft         electrons   0.0000000000000000     
 total        electrons   1327.5534082839981     
 augmentation electrons   1327.5534082839981     
 soft         electrons   0.0000000000000000     
 total        electrons   1327.5534082839981     
 augmentation electrons   1327.5534082839981     
 soft         electrons   0.0000000000000000     
 total        electrons   1327.5534082839981     
 augmentation electrons   1327.5534082839981     
 soft         electrons   0.0000000000000000     
 total        electrons   1327.5534082839981     
 augmentation electrons   1327.5534082839981     
 soft         electrons   0.0000000000000000     
 total        electrons   1327.5534082839981     
 augmentation electrons   1327.5534082839981     
 soft         electrons   0.0000000000000000     
 total        electrons   1327.5534082839981     
 augmentation electrons   1327.5534082839981     
 soft         electrons   0.0000000000000000     
 total        electrons   1327.5534082839981     
 augmentation electrons   1327.5534082839981     
 soft         electrons   0.0000000000000000     
 total        electrons   1327.5534082839981     
 augmentation electrons   1327.5534082839981     
 soft         electrons   0.0000000000000000     
 total        electrons   1327.5534082839981     
 augmentation electrons   1327.5534082839981     
 soft         electrons   0.0000000000000000     
 total        electrons   1327.5534082839981     
 augmentation electrons   1327.5534082839981     
 soft         electrons   0.0000000000000000     
 total        electrons   1327.5534082839981     
 augmentation electrons   1327.5534082839981     
 soft         electrons   0.0000000000000000     
 total        electrons   1327.5534082839981     
 augmentation electrons   1327.5534082839981     
 soft         electrons   0.0000000000000000     
 total        electrons   1327.5534082839981     
 augmentation electrons   1327.5534082839981     
 soft         electrons   0.0000000000000000     
 total        electrons   1327.5534082839981     
 augmentation electrons   1327.5534082839981     
 soft         electrons   0.0000000000000000     
 total        electrons   1327.5534082839981     
 augmentation electrons   1327.5534082839981     
 soft         electrons   0.0000000000000000     
 total        electrons   1327.5534082839981     
 augmentation electrons   1327.5534082839981     
 soft         electrons   0.0000000000000000     
 total        electrons   1327.5534082839981     
 augmentation electrons   1327.5534082839981     
 soft         electrons   0.0000000000000000     
 total        electrons   1327.5534082839981     
 augmentation electrons   1327.5534082839981     
 soft         electrons   0.0000000000000000     
 total        electrons   1327.5534082839981     
 augmentation electrons   1327.5534082839981     
 soft         electrons   0.0000000000000000     
 total        electrons   1327.5534082839981     
 augmentation electrons   1327.5534082839981     
 soft         electrons   0.0000000000000000     
 total        electrons   1327.5534082839981     
 entering main loop
       N       E                     dE             d eps       ncg     rms          rms(c)
DAV:   1     0.509727718044E+04    0.50973E+04   -0.21408E+05 18592   0.126E+03
DAV:   2    -0.140583960017E+03   -0.52379E+04   -0.48979E+04 18560   0.329E+02
DAV:   3    -0.654690981724E+03   -0.51411E+03   -0.41255E+03 19104   0.139E+02
DAV:   4    -0.683928496804E+03   -0.29238E+02   -0.27682E+02 21168   0.359E+01
DAV:   5    -0.684738253149E+03   -0.80976E+00   -0.80625E+00 21136   0.528E+00    0.968E+01
RMM:   6    -0.683449103138E+03    0.12892E+01   -0.22816E+00 19587   0.324E+00    0.971E+01
RMM:   7    -0.677739891425E+03    0.57092E+01   -0.60253E-01 19545   0.152E+00    0.918E+01
RMM:   8    -0.679972629492E+03   -0.22327E+01   -0.17790E+00 19431   0.311E+00    0.946E+01
RMM:   9    -0.668680371456E+03    0.11292E+02   -0.13105E+00 19418   0.234E+00    0.849E+01
RMM:  10    -0.629060019961E+03    0.39620E+02   -0.96882E+01 18820   0.245E+01    0.591E+01
RMM:  11    -0.614802197297E+03    0.14258E+02   -0.30897E+01 19184   0.104E+01    0.495E+01
RMM:  12    -0.604210983873E+03    0.10591E+02   -0.26904E+01 19067   0.115E+01    0.411E+01
RMM:  13    -0.603688259454E+03    0.52272E+00   -0.65177E+00 19336   0.462E+00    0.389E+01
RMM:  14    -0.605565021180E+03   -0.18768E+01   -0.11021E+00 19376   0.185E+00    0.369E+01
RMM:  15    -0.609436168200E+03   -0.38711E+01   -0.11054E+00 19405   0.198E+00    0.317E+01
RMM:  16    -0.610553003696E+03   -0.11168E+01   -0.86661E-01 19557   0.191E+00    0.296E+01
RMM:  17    -0.610352180466E+03    0.20082E+00   -0.15945E-01 20071   0.633E-01    0.286E+01
RMM:  18    -0.609391495038E+03    0.96069E+00   -0.86585E-01 19298   0.226E+00    0.238E+01
RMM:  19    -0.608981350181E+03    0.41014E+00   -0.55373E-01 19331   0.128E+00    0.207E+01
RMM:  20    -0.608109347052E+03    0.87200E+00   -0.12373E+00 19308   0.263E+00    0.162E+01
RMM:  21    -0.607698249756E+03    0.41110E+00   -0.36923E-01 19045   0.122E+00    0.121E+01
RMM:  22    -0.607685561044E+03    0.12689E-01   -0.16538E-01 19117   0.954E-01    0.102E+01
RMM:  23    -0.607791011402E+03   -0.10545E+00   -0.14774E-01 19227   0.816E-01    0.739E+00
RMM:  24    -0.607935192004E+03   -0.14418E+00   -0.32443E-01 18925   0.117E+00    0.422E+00
RMM:  25    -0.607931764018E+03    0.34280E-02   -0.48142E-02 19723   0.340E-01    0.325E+00
RMM:  26    -0.607940621215E+03   -0.88572E-02   -0.43298E-02 19127   0.393E-01    0.221E+00
RMM:  27    -0.607941680592E+03   -0.10594E-02   -0.24861E-02 19491   0.298E-01    0.176E+00
RMM:  28    -0.607937065399E+03    0.46152E-02   -0.11186E-02 19277   0.181E-01    0.137E+00
RMM:  29    -0.607935274902E+03    0.17905E-02   -0.66070E-03 19014   0.147E-01    0.112E+00
RMM:  30    -0.607933505572E+03    0.17693E-02   -0.25504E-03 19965   0.953E-02    0.998E-01
RMM:  31    -0.607931726240E+03    0.17793E-02   -0.18013E-03 19135   0.829E-02    0.869E-01
RMM:  32    -0.607928685243E+03    0.30410E-02   -0.26334E-03 19087   0.105E-01    0.807E-01
RMM:  33    -0.607928158170E+03    0.52707E-03   -0.43172E-03 18989   0.127E-01    0.578E-01
RMM:  34    -0.607928262042E+03   -0.10387E-03   -0.12053E-03 19236   0.706E-02    0.537E-01
RMM:  35    -0.607927952490E+03    0.30955E-03   -0.11588E-03 19066   0.767E-02    0.440E-01
RMM:  36    -0.607928045994E+03   -0.93505E-04   -0.24263E-04 19375   0.249E-02    0.401E-01
RMM:  37    -0.607927991501E+03    0.54494E-04   -0.80453E-04 19045   0.613E-02    0.267E-01
RMM:  38    -0.607927994799E+03   -0.32983E-05   -0.22173E-04 19413   0.323E-02    0.214E-01
RMM:  39    -0.607928072515E+03   -0.77716E-04   -0.20589E-04 19003   0.309E-02    0.164E-01
RMM:  40    -0.607928091608E+03   -0.19093E-04   -0.75006E-05 18415   0.162E-02    0.148E-01
RMM:  41    -0.607928074146E+03    0.17462E-04   -0.16581E-04 18889   0.272E-02    0.989E-02
RMM:  42    -0.607928022192E+03    0.51955E-04   -0.62943E-05 17783   0.143E-02    0.832E-02
RMM:  43    -0.607928013792E+03    0.83996E-05   -0.46215E-05 16596   0.127E-02
   1 F= -.60792801E+03 E0= -.60793041E+03  d E =0.719529E-02  mag=   176.1334
 writing wavefunctions
 augmentation electrons   311.36958608857390     
 soft         electrons   294.63789687951646     
 total        electrons   606.00748296809036     
 augmentation electrons   311.36958608857390     
 soft         electrons   294.63789687951646     
 total        electrons   606.00748296809036     
 augmentation electrons   311.36958608857390     
 soft         electrons   294.63789687951646     
 total        electrons   606.00748296809036     
 augmentation electrons   311.36958608857390     
 soft         electrons   294.63789687951646     
 total        electrons   606.00748296809036     
 augmentation electrons   311.36958608857390     
 soft         electrons   294.63789687951646     
 total        electrons   606.00748296809036     
 augmentation electrons   311.36958608857390     
 soft         electrons   294.63789687951646     
 total        electrons   606.00748296809036     
 augmentation electrons   311.36958608857390     
 soft         electrons   294.63789687951646     
 total        electrons   606.00748296809036     
 augmentation electrons   311.36958608857390     
 soft         electrons   294.63789687951646     
 total        electrons   606.00748296809036     
 augmentation electrons   311.36958608857390     
 soft         electrons   294.63789687951646     
 total        electrons   606.00748296809036     
 augmentation electrons   311.36958608857390     
 soft         electrons   294.63789687951646     
 total        electrons   606.00748296809036     
 augmentation electrons   311.36958608857390     
 soft         electrons   294.63789687951646     
 total        electrons   606.00748296809036     
 augmentation electrons   311.36958608857390     
 soft         electrons   294.63789687951646     
 total        electrons   606.00748296809036     
 augmentation electrons   311.36958608857390     
 soft         electrons   294.63789687951646     
 total        electrons   606.00748296809036     
 augmentation electrons   311.36958608857390     
 soft         electrons   294.63789687951646     
 total        electrons   606.00748296809036     
 augmentation electrons   311.36958608857390     
 soft         electrons   294.63789687951646     
 total        electrons   606.00748296809036     
 augmentation electrons   311.36958608857390     
 soft         electrons   294.63789687951646     
 total        electrons   606.00748296809036     
 augmentation electrons   311.36958608857390     
 soft         electrons   294.63789687951646     
 total        electrons   606.00748296809036     
 augmentation electrons   311.36958608857390     
 soft         electrons   294.63789687951646     
 total        electrons   606.00748296809036     
 augmentation electrons   311.36958608857390     
 soft         electrons   294.63789687951646     
 total        electrons   606.00748296809036     
 augmentation electrons   311.36958608857390     
 soft         electrons   294.63789687951646     
 total        electrons   606.00748296809036     
 augmentation electrons   311.36958608857390     
 soft         electrons   294.63789687951646     
 total        electrons   606.00748296809036     
 augmentation electrons   311.36958608857390     
 soft         electrons   294.63789687951646     
 total        electrons   606.00748296809036     
 augmentation electrons   311.36958608857390     
 soft         electrons   294.63789687951646     
 total        electrons   606.00748296809036     
 augmentation electrons   311.36958608857390     
 soft         electrons   294.63789687951646     
 total        electrons   606.00748296809036     
 augmentation electrons   311.36958608857390     
 soft         electrons   294.63789687951646     
 total        electrons   606.00748296809036     
 augmentation electrons   311.36958608857390     
 soft         electrons   294.63789687951646     
 total        electrons   606.00748296809036     
 augmentation electrons   311.36958608857390     
 soft         electrons   294.63789687951646     
 total        electrons   606.00748296809036     
 augmentation electrons   311.36958608857390     
 soft         electrons   294.63789687951646     
 total        electrons   606.00748296809036     
 augmentation electrons   311.36958608857390     
 soft         electrons   294.63789687951646     
 total        electrons   606.00748296809036     
 augmentation electrons   311.36958608857390     
 soft         electrons   294.63789687951646     
 total        electrons   606.00748296809036     
 augmentation electrons   311.36958608857390     
 soft         electrons   294.63789687951646     
 total        electrons   606.00748296809036     
 augmentation electrons   311.36958608857390     
 soft         electrons   294.63789687951646     
 total        electrons   606.00748296809036     
 augmentation electrons   311.36958608857390     
 soft         electrons   294.63789687951646     
 total        electrons   606.00748296809036     
 augmentation electrons   311.36958608857390     
 soft         electrons   294.63789687951646     
 total        electrons   606.00748296809036     
 augmentation electrons   311.36958608857390     
 soft         electrons   294.63789687951646     
 total        electrons   606.00748296809036     
 augmentation electrons   311.36958608857390     
 soft         electrons   294.63789687951646     
 total        electrons   606.00748296809036     
 augmentation electrons   311.36958608857390     
 soft         electrons   294.63789687951646     
 total        electrons   606.00748296809036     
 augmentation electrons   311.36958608857390     
 soft         electrons   294.63789687951646     
 total        electrons   606.00748296809036     
 augmentation electrons   311.36958608857390     
 soft         electrons   294.63789687951646     
 total        electrons   606.00748296809036     
 augmentation electrons   311.36958608857390     
 soft         electrons   294.63789687951646     
 total        electrons   606.00748296809036     
 augmentation electrons   311.36958608857390     
 soft         electrons   294.63789687951646     
 total        electrons   606.00748296809036     
 augmentation electrons   311.36958608857390     
 soft         electrons   294.63789687951646     
 total        electrons   606.00748296809036     
 augmentation electrons   311.36958608857390     
 soft         electrons   294.63789687951646     
 total        electrons   606.00748296809036     
 augmentation electrons   311.36958608857390     
 soft         electrons   294.63789687951646     
 total        electrons   606.00748296809036     
 augmentation electrons   311.36958608857390     
 soft         electrons   294.63789687951646     
 total        electrons   606.00748296809036     
 augmentation electrons   311.36958608857390     
 soft         electrons   294.63789687951646     
 total        electrons   606.00748296809036     
 augmentation electrons   311.36958608857390     
 soft         electrons   294.63789687951646     
 total        electrons   606.00748296809036     
 augmentation electrons   311.36958608857390     
 soft         electrons   294.63789687951646     
 total        electrons   606.00748296809036     
 augmentation electrons   311.36958608857390     
 soft         electrons   294.63789687951646     
 total        electrons   606.00748296809036     
 augmentation electrons   311.36958608857390     
 soft         electrons   294.63789687951646     
 total        electrons   606.00748296809036     
 augmentation electrons   311.36958608857390     
 soft         electrons   294.63789687951646     
 total        electrons   606.00748296809036     
 augmentation electrons   311.36958608857390     
 soft         electrons   294.63789687951646     
 total        electrons   606.00748296809036     
 augmentation electrons   311.36958608857390     
 soft         electrons   294.63789687951646     
 total        electrons   606.00748296809036     
 augmentation electrons   311.36958608857390     
 soft         electrons   294.63789687951646     
 total        electrons   606.00748296809036     
 augmentation electrons   311.36958608857390     
 soft         electrons   294.63789687951646     
 total        electrons   606.00748296809036     
 augmentation electrons   311.36958608857390     
 soft         electrons   294.63789687951646     
 total        electrons   606.00748296809036     
 augmentation electrons   311.36958608857390     
 soft         electrons   294.63789687951646     
 total        electrons   606.00748296809036     
 augmentation electrons   311.36958608857390     
 soft         electrons   294.63789687951646     
 total        electrons   606.00748296809036     
 augmentation electrons   311.36958608857390     
 soft         electrons   294.63789687951646     
 total        electrons   606.00748296809036     
 augmentation electrons   311.36958608857390     
 soft         electrons   294.63789687951646     
 total        electrons   606.00748296809036     
 augmentation electrons   311.36958608857390     
 soft         electrons   294.63789687951646     
 total        electrons   606.00748296809036     
 augmentation electrons   311.36958608857390     
 soft         electrons   294.63789687951646     
 total        electrons   606.00748296809036     
 augmentation electrons   311.36958608857390     
 soft         electrons   294.63789687951646     
 total        electrons   606.00748296809036     
 augmentation electrons   311.36958608857390     
 soft         electrons   294.63789687951646     
 total        electrons   606.00748296809036     
 augmentation electrons   311.36958608857390     
 soft         electrons   294.63789687951646     
 total        electrons   606.00748296809036     
 augmentation electrons   311.36958608857390     
 soft         electrons   294.63789687951646     
 total        electrons   606.00748296809036     
 augmentation electrons   311.36958608857390     
 soft         electrons   294.63789687951646     
 total        electrons   606.00748296809036     
 augmentation electrons   311.36958608857390     
 soft         electrons   294.63789687951646     
 total        electrons   606.00748296809036     
 augmentation electrons   311.36958608857390     
 soft         electrons   294.63789687951646     
 total        electrons   606.00748296809036     
 augmentation electrons   311.36958608857390     
 soft         electrons   294.63789687951646     
 total        electrons   606.00748296809036     
 augmentation electrons   311.36958608857390     
 soft         electrons   294.63789687951646     
 total        electrons   606.00748296809036     
 augmentation electrons   311.36958608857390     
 soft         electrons   294.63789687951646     
 total        electrons   606.00748296809036     
 augmentation electrons   311.36958608857390     
 soft         electrons   294.63789687951646     
 total        electrons   606.00748296809036     
 augmentation electrons   311.36958608857390     
 soft         electrons   294.63789687951646     
 total        electrons   606.00748296809036     
 augmentation electrons   311.36958608857390     
 soft         electrons   294.63789687951646     
 total        electrons   606.00748296809036     
 augmentation electrons   311.36958608857390     
 soft         electrons   294.63789687951646     
 total        electrons   606.00748296809036     
 augmentation electrons   311.36958608857390     
 soft         electrons   294.63789687951646     
 total        electrons   606.00748296809036     
 augmentation electrons   311.36958608857390     
 soft         electrons   294.63789687951646     
 total        electrons   606.00748296809036     
 augmentation electrons   311.36958608857390     
 soft         electrons   294.63789687951646     
 total        electrons   606.00748296809036     
 augmentation electrons   311.36958608857390     
 soft         electrons   294.63789687951646     
 total        electrons   606.00748296809036     
[...]
 augmentation electrons   311.36958608857390     
 soft         electrons   294.63789687951646     
 total        electrons   606.00748296809036     
 augmentation electrons   311.36958608857390     
 soft         electrons   294.63789687951646     
 total        electrons   606.00748296809036     
 augmentation electrons   311.36958608857390     
 soft         electrons   294.63789687951646     
 total        electrons   606.00748296809036     
 augmentation electrons   311.36958608857390     
 soft         electrons   294.63789687951646     
 total        electrons   606.00748296809036     
 augmentation electrons   311.36958608857390     
 soft         electrons   294.63789687951646     
 total        electrons   606.00748296809036     
 augmentation electrons   142.75222737309556     
 soft         electrons   294.63789687951646     
 total        electrons   176.03928246404331     
 augmentation electrons   142.75222737309556     
 soft         electrons   294.63789687951646     
 total        electrons   176.03928246404331     
 augmentation electrons   142.75222737309556     
 soft         electrons   294.63789687951646     
 total        electrons   176.03928246404331     
 augmentation electrons   142.75222737309556     
 soft         electrons   294.63789687951646     
 total        electrons   176.03928246404331     
 augmentation electrons   142.75222737309556     
 soft         electrons   294.63789687951646     
 total        electrons   176.03928246404331     
 augmentation electrons   142.75222737309556     
 soft         electrons   294.63789687951646     
 total        electrons   176.03928246404331     
 augmentation electrons   142.75222737309556     
 soft         electrons   294.63789687951646     
 total        electrons   176.03928246404331     
 augmentation electrons   142.75222737309556     
 soft         electrons   294.63789687951646     
 total        electrons   176.03928246404331     
 augmentation electrons   142.75222737309556     
 soft         electrons   294.63789687951646     
 total        electrons   176.03928246404331     
 augmentation electrons   142.75222737309556     
 soft         electrons   294.63789687951646     
 total        electrons   176.03928246404331     
 augmentation electrons   142.75222737309556     
 soft         electrons   294.63789687951646     
 total        electrons   176.03928246404331     
 augmentation electrons   142.75222737309556     
 soft         electrons   294.63789687951646     
 total        electrons   176.03928246404331     
 augmentation electrons   142.75222737309556     
 soft         electrons   294.63789687951646     
 total        electrons   176.03928246404331     
 augmentation electrons   142.75222737309556     
 soft         electrons   294.63789687951646     
 total        electrons   176.03928246404331     
 augmentation electrons   142.75222737309556     
 soft         electrons   294.63789687951646     
 total        electrons   176.03928246404331     
 augmentation electrons   142.75222737309556     
 soft         electrons   294.63789687951646     
 total        electrons   176.03928246404331     
 augmentation electrons   142.75222737309556     
 soft         electrons   294.63789687951646     
 total        electrons   176.03928246404331     
 augmentation electrons   142.75222737309556     
 soft         electrons   294.63789687951646     
 total        electrons   176.03928246404331     
 augmentation electrons   142.75222737309556     
 soft         electrons   294.63789687951646     
 total        electrons   176.03928246404331     
 augmentation electrons   142.75222737309556     
 soft         electrons   294.63789687951646     
 total        electrons   176.03928246404331     
 augmentation electrons   142.75222737309556     
 soft         electrons   294.63789687951646     
 total        electrons   176.03928246404331     
 augmentation electrons   142.75222737309556     
 soft         electrons   294.63789687951646     
 total        electrons   176.03928246404331     
 augmentation electrons   142.75222737309556     
 soft         electrons   294.63789687951646     
 total        electrons   176.03928246404331     
 augmentation electrons   142.75222737309556     
 soft         electrons   294.63789687951646     
 total        electrons   176.03928246404331     
 augmentation electrons   142.75222737309556     
 soft         electrons   294.63789687951646     
 total        electrons   176.03928246404331     
 augmentation electrons   142.75222737309556     
 soft         electrons   294.63789687951646     
 total        electrons   176.03928246404331     
 augmentation electrons   142.75222737309556     
 soft         electrons   294.63789687951646     
 total        electrons   176.03928246404331     
 augmentation electrons   142.75222737309556     
 soft         electrons   294.63789687951646     
 total        electrons   176.03928246404331     
 augmentation electrons   142.75222737309556     
 soft         electrons   294.63789687951646     
 total        electrons   176.03928246404331     
 augmentation electrons   142.75222737309556     
 soft         electrons   294.63789687951646     
 total        electrons   176.03928246404331     
 augmentation electrons   142.75222737309556     
 soft         electrons   294.63789687951646     
 total        electrons   176.03928246404331     
 augmentation electrons   142.75222737309556     
 soft         electrons   294.63789687951646     
 total        electrons   176.03928246404331     
 augmentation electrons   142.75222737309556     
 soft         electrons   294.63789687951646     
 total        electrons   176.03928246404331     
 augmentation electrons   142.75222737309556     
 soft         electrons   294.63789687951646     
 total        electrons   176.03928246404331     
 augmentation electrons   142.75222737309556     
 soft         electrons   294.63789687951646     
 total        electrons   176.03928246404331     
 augmentation electrons   142.75222737309556     
 soft         electrons   294.63789687951646     
 total        electrons   176.03928246404331     
 augmentation electrons   142.75222737309556     
 soft         electrons   294.63789687951646     
 total        electrons   176.03928246404331     
 augmentation electrons   142.75222737309556     
 soft         electrons   294.63789687951646     
 total        electrons   176.03928246404331     
 augmentation electrons   142.75222737309556     
 soft         electrons   294.63789687951646     
 total        electrons   176.03928246404331     
 augmentation electrons   142.75222737309556     
 soft         electrons   294.63789687951646     
 total        electrons   176.03928246404331     
 augmentation electrons   142.75222737309556     
 soft         electrons   294.63789687951646     
 total        electrons   176.03928246404331     
 augmentation electrons   142.75222737309556     
 soft         electrons   294.63789687951646     
 total        electrons   176.03928246404331     
 augmentation electrons   142.75222737309556     
 soft         electrons   294.63789687951646     
 total        electrons   176.03928246404331     
 augmentation electrons   142.75222737309556     
 soft         electrons   294.63789687951646     
 total        electrons   176.03928246404331     
 augmentation electrons   142.75222737309556     
 soft         electrons   294.63789687951646     
 total        electrons   176.03928246404331     
 augmentation electrons   142.75222737309556     
 soft         electrons   294.63789687951646     
 total        electrons   176.03928246404331     
 augmentation electrons   142.75222737309556     
 soft         electrons   294.63789687951646     
 total        electrons   176.03928246404331     
 augmentation electrons   142.75222737309556     
 soft         electrons   294.63789687951646     
 total        electrons   176.03928246404331     
 augmentation electrons   142.75222737309556     
 soft         electrons   294.63789687951646     
 total        electrons   176.03928246404331     
 augmentation electrons   142.75222737309556     
 soft         electrons   294.63789687951646     
 total        electrons   176.03928246404331     
 augmentation electrons   142.75222737309556     
 soft         electrons   294.63789687951646     
 total        electrons   176.03928246404331     
 augmentation electrons   142.75222737309556     
 soft         electrons   294.63789687951646     
 total        electrons   176.03928246404331     
 augmentation electrons   142.75222737309556     
 soft         electrons   294.63789687951646     
 total        electrons   176.03928246404331     
 augmentation electrons   142.75222737309556     
 soft         electrons   294.63789687951646     
 total        electrons   176.03928246404331     
 augmentation electrons   142.75222737309556     
 soft         electrons   294.63789687951646     
 total        electrons   176.03928246404331     
 augmentation electrons   142.75222737309556     
 soft         electrons   294.63789687951646     
 total        electrons   176.03928246404331     
 augmentation electrons   142.75222737309556     
 soft         electrons   294.63789687951646     
 total        electrons   176.03928246404331     
 augmentation electrons   142.75222737309556     
 soft         electrons   294.63789687951646     
 total        electrons   176.03928246404331     
 augmentation electrons   142.75222737309556     
 soft         electrons   294.63789687951646     
 total        electrons   176.03928246404331     
 augmentation electrons   142.75222737309556     
 soft         electrons   294.63789687951646     
 total        electrons   176.03928246404331     
 augmentation electrons   142.75222737309556     
 soft         electrons   294.63789687951646     
 total        electrons   176.03928246404331     
 augmentation electrons   142.75222737309556     
 soft         electrons   294.63789687951646     
 total        electrons   176.03928246404331     
 augmentation electrons   142.75222737309556     
 soft         electrons   294.63789687951646     
 total        electrons   176.03928246404331     
 augmentation electrons   142.75222737309556     
 soft         electrons   294.63789687951646     
 total        electrons   176.03928246404331     
 augmentation electrons   142.75222737309556     
 soft         electrons   294.63789687951646     
 total        electrons   176.03928246404331     
 augmentation electrons   142.75222737309556     
 soft         electrons   294.63789687951646     
 total        electrons   176.03928246404331     
 augmentation electrons   142.75222737309556     
 soft         electrons   294.63789687951646     
 total        electrons   176.03928246404331     
 augmentation electrons   142.75222737309556     
 soft         electrons   294.63789687951646     
 total        electrons   176.03928246404331     
 augmentation electrons   142.75222737309556     
 soft         electrons   294.63789687951646     
 total        electrons   176.03928246404331     
 augmentation electrons   142.75222737309556     
 soft         electrons   294.63789687951646     
 total        electrons   176.03928246404331     
 augmentation electrons   142.75222737309556     
 soft         electrons   294.63789687951646     
 total        electrons   176.03928246404331     
 augmentation electrons   142.75222737309556     
 soft         electrons   294.63789687951646     
 total        electrons   176.03928246404331     
 augmentation electrons   142.75222737309556     
 soft         electrons   294.63789687951646     
 total        electrons   176.03928246404331     
 augmentation electrons   142.75222737309556     
 soft         electrons   294.63789687951646     
 total        electrons   176.03928246404331     
 augmentation electrons   142.75222737309556     
 soft         electrons   294.63789687951646     
 total        electrons   176.03928246404331     
 augmentation electrons   142.75222737309556     
 soft         electrons   294.63789687951646     
 total        electrons   176.03928246404331     
 augmentation electrons   142.75222737309556     
 soft         electrons   294.63789687951646     
 total        electrons   176.03928246404331     
 augmentation electrons   142.75222737309556     
 soft         electrons   294.63789687951646     
 total        electrons   176.03928246404331     
 augmentation electrons   142.75222737309556     
 soft         electrons   294.63789687951646     
 total        electrons   176.03928246404331     
 augmentation electrons   142.75222737309556     
 soft         electrons   294.63789687951646     
 total        electrons   176.03928246404331     
 augmentation electrons   142.75222737309556     
 soft         electrons   294.63789687951646     
 total        electrons   176.03928246404331     
 augmentation electrons   142.75222737309556     
 soft         electrons   294.63789687951646     
 total        electrons   176.03928246404331     
 augmentation electrons   142.75222737309556     
 soft         electrons   294.63789687951646     
 total        electrons   176.03928246404331     
 augmentation electrons   142.75222737309556     
 soft         electrons   294.63789687951646     
 total        electrons   176.03928246404331     
 augmentation electrons   142.75222737309556     
 soft         electrons   294.63789687951646     
 total        electrons   176.03928246404331     
 augmentation electrons   142.75222737309556     
 soft         electrons   294.63789687951646     
 total        electrons   176.03928246404331     
 augmentation electrons   142.75222737309556     
 soft         electrons   294.63789687951646     
 total        electrons   176.03928246404331     
 augmentation electrons   142.75222737309556     
 soft         electrons   294.63789687951646     
 total        electrons   176.03928246404331     
 augmentation electrons   142.75222737309556     
 soft         electrons   294.63789687951646     
 total        electrons   176.03928246404331     
 augmentation electrons   142.75222737309556     
 soft         electrons   294.63789687951646     
 total        electrons   176.03928246404331     
 augmentation electrons   142.75222737309556     
 soft         electrons   294.63789687951646     
 total        electrons   176.03928246404331     
 augmentation electrons   142.75222737309556     
 soft         electrons   294.63789687951646     
 total        electrons   176.03928246404331     
 augmentation electrons   142.75222737309556     
 soft         electrons   294.63789687951646     
 total        electrons   176.03928246404331     
 augmentation electrons   142.75222737309556     
 soft         electrons   294.63789687951646     
 total        electrons   176.03928246404331     
 augmentation electrons   142.75222737309556     
 soft         electrons   294.63789687951646     
 total        electrons   176.03928246404331     
 augmentation electrons   142.75222737309556     
 soft         electrons   294.63789687951646     
 total        electrons   176.03928246404331     
 augmentation electrons   142.75222737309556     
 soft         electrons   294.63789687951646     
 total        electrons   176.03928246404331     
 augmentation electrons   142.75222737309556     
 soft         electrons   294.63789687951646     
 total        electrons   176.03928246404331     
 augmentation electrons   142.75222737309556     
 soft         electrons   294.63789687951646     
 total        electrons   176.03928246404331     
 augmentation electrons   142.75222737309556     
 soft         electrons   294.63789687951646     
 total        electrons   176.03928246404331     
 augmentation electrons   142.75222737309556     
 soft         electrons   294.63789687951646     
 total        electrons   176.03928246404331     
 augmentation electrons   142.75222737309556     
 soft         electrons   294.63789687951646     
 total        electrons   176.03928246404331     
 augmentation electrons   142.75222737309556     
 soft         electrons   294.63789687951646     
 total        electrons   176.03928246404331     
 augmentation electrons   142.75222737309556     
 soft         electrons   294.63789687951646     
 total        electrons   176.03928246404331     
 augmentation electrons   142.75222737309556     
 soft         electrons   294.63789687951646     
 total        electrons   176.03928246404331     
 augmentation electrons   142.75222737309556     
 soft         electrons   294.63789687951646     
 total        electrons   176.03928246404331     
 augmentation electrons   142.75222737309556     
 soft         electrons   294.63789687951646     
 total        electrons   176.03928246404331     
 augmentation electrons   142.75222737309556     
 soft         electrons   294.63789687951646     
 total        electrons   176.03928246404331     
 augmentation electrons   142.75222737309556     
 soft         electrons   294.63789687951646     
 total        electrons   176.03928246404331     
 augmentation electrons   142.75222737309556     
 soft         electrons   294.63789687951646     
 total        electrons   176.03928246404331     
 augmentation electrons   142.75222737309556     
 soft         electrons   294.63789687951646     
 total        electrons   176.03928246404331     
 augmentation electrons   142.75222737309556     
 soft         electrons   294.63789687951646     
 total        electrons   176.03928246404331     
 augmentation electrons   142.75222737309556     
 soft         electrons   294.63789687951646     
 total        electrons   176.03928246404331     
 augmentation electrons   142.75222737309556     
 soft         electrons   294.63789687951646     
 total        electrons   176.03928246404331     
 augmentation electrons   142.75222737309556     
 soft         electrons   294.63789687951646     
 total        electrons   176.03928246404331     
 augmentation electrons   142.75222737309556     
 soft         electrons   294.63789687951646     
 total        electrons   176.03928246404331     
 augmentation electrons   142.75222737309556     
 soft         electrons   294.63789687951646     
 total        electrons   176.03928246404331     
 augmentation electrons   142.75222737309556     
 soft         electrons   294.63789687951646     
 total        electrons   176.03928246404331     
 augmentation electrons   142.75222737309556     
 soft         electrons   294.63789687951646     
 total        electrons   176.03928246404331     
 augmentation electrons   142.75222737309556     
 soft         electrons   294.63789687951646     
 total        electrons   176.03928246404331     
 augmentation electrons   142.75222737309556     
 soft         electrons   294.63789687951646     
 total        electrons   176.03928246404331     
 augmentation electrons   142.75222737309556     
 soft         electrons   294.63789687951646     
 total        electrons   176.03928246404331     
 augmentation electrons   142.75222737309556     
 soft         electrons   294.63789687951646     
 total        electrons   176.03928246404331     
 augmentation electrons   142.75222737309556     
 soft         electrons   294.63789687951646     
 total        electrons   176.03928246404331     
 augmentation electrons   142.75222737309556     
 soft         electrons   294.63789687951646     
 total        electrons   176.03928246404331     
 augmentation electrons   142.75222737309556     
 soft         electrons   294.63789687951646     
 total        electrons   176.03928246404331     
 augmentation electrons   142.75222737309556     
 soft         electrons   294.63789687951646     
 total        electrons   176.03928246404331     
 augmentation electrons   142.75222737309556     
 soft         electrons   294.63789687951646     
 total        electrons   176.03928246404331     
